n -t * -s 0  -x 100 -y 200 -Z 0 -z 1  -v circle -c black
n -t * -s 1  -x 60 -y 150 -Z 0 -z 1  -v circle -c black
n -t * -s 2  -x 140 -y 150 -Z 0 -z 1  -v circle -c black
V -t * -v 1.0a5 -a 0
W -t * -x 400 -y 400
A -t * -n 1 -p 0 -o 0x7fffffff -c 30 -a 1
A -t * -h 1 -m 1073741823 -s 0
n -t * -a 0 -s 0 -S UP -v circle -c black -i black -x 100 -y 200 -Z 0
n -t * -a 1 -s 1 -S UP -v circle -c black -i black -x 60 -y 150 -Z 0
n -t * -a 2 -s 2 -S UP -v circle -c black -i black -x 140 -y 150 -Z 0
+ -t 1.000000000 -s 1 -d -1 -p cbr -e 1000 -c 2 -a 0 -i 0 -k AGT 
- -t 1.000000000 -s 1 -d -1 -p cbr -e 1000 -c 2 -a 0 -i 0 -k AGT
h -t 1.000000000 -s 1 -d -1 -p cbr -e 1000 -c 2 -a 0 -i 0 -k AGT
+ -t 1.000000000 -s 1 -d -1 -p AODV -e 48 -c 2 -a 0 -i 0 -k RTR 
- -t 1.000000000 -s 1 -d -1 -p AODV -e 48 -c 2 -a 0 -i 0 -k RTR
h -t 1.000000000 -s 1 -d -1 -p AODV -e 48 -c 2 -a 0 -i 0 -k RTR
r -t 1.000207547 -s 0 -d -1 -p AODV -e 48 -c 2 -a 0 -i 0 -k RTR
+ -t 1.000207547 -s 0 -d 1 -p AODV -e 44 -c 2 -a 0 -i 0 -k RTR 
- -t 1.000207547 -s 0 -d 1 -p AODV -e 44 -c 2 -a 0 -i 0 -k RTR
h -t 1.000207547 -s 0 -d 1 -p AODV -e 44 -c 2 -a 0 -i 0 -k RTR
r -t 1.000207600 -s 2 -d -1 -p AODV -e 48 -c 2 -a 0 -i 0 -k RTR
+ -t 1.000257102 -s 1 -d -1 -p cbr -e 1000 -c 2 -a 0 -i 1 -k AGT 
- -t 1.000257102 -s 1 -d -1 -p cbr -e 1000 -c 2 -a 0 -i 1 -k AGT
h -t 1.000257102 -s 1 -d -1 -p cbr -e 1000 -c 2 -a 0 -i 1 -k AGT
+ -t 1.000737261 -s 1 -d 0 -p cbr -e 1020 -c 2 -a 0 -i 0 -k RTR 
- -t 1.000737261 -s 1 -d 0 -p cbr -e 1020 -c 2 -a 0 -i 0 -k RTR
h -t 1.000737261 -s 1 -d 0 -p cbr -e 1020 -c 2 -a 0 -i 0 -k RTR
+ -t 1.000915340 -s 1 -d -1 -p cbr -e 1000 -c 2 -a 0 -i 2 -k AGT 
- -t 1.000915340 -s 1 -d -1 -p cbr -e 1000 -c 2 -a 0 -i 2 -k AGT
h -t 1.000915340 -s 1 -d -1 -p cbr -e 1000 -c 2 -a 0 -i 2 -k AGT
+ -t 1.000915340 -s 1 -d 0 -p cbr -e 1020 -c 2 -a 0 -i 2 -k RTR 
- -t 1.000915340 -s 1 -d 0 -p cbr -e 1020 -c 2 -a 0 -i 2 -k RTR
h -t 1.000915340 -s 1 -d 0 -p cbr -e 1020 -c 2 -a 0 -i 2 -k RTR
r -t 1.001054623 -s 0 -d 0 -p cbr -e 1020 -c 2 -a 0 -i 0 -k AGT
r -t 1.001370864 -s 0 -d 0 -p cbr -e 1020 -c 2 -a 0 -i 2 -k AGT
+ -t 1.001485374 -s 1 -d -1 -p cbr -e 1000 -c 2 -a 0 -i 3 -k AGT 
- -t 1.001485374 -s 1 -d -1 -p cbr -e 1000 -c 2 -a 0 -i 3 -k AGT
h -t 1.001485374 -s 1 -d -1 -p cbr -e 1000 -c 2 -a 0 -i 3 -k AGT
+ -t 1.001485374 -s 1 -d 0 -p cbr -e 1020 -c 2 -a 0 -i 3 -k RTR 
- -t 1.001485374 -s 1 -d 0 -p cbr -e 1020 -c 2 -a 0 -i 3 -k RTR
h -t 1.001485374 -s 1 -d 0 -p cbr -e 1020 -c 2 -a 0 -i 3 -k RTR
r -t 1.001865736 -s 0 -d 0 -p cbr -e 1020 -c 2 -a 0 -i 3 -k AGT
+ -t 1.001947203 -s 1 -d -1 -p cbr -e 1000 -c 2 -a 0 -i 4 -k AGT 
- -t 1.001947203 -s 1 -d -1 -p cbr -e 1000 -c 2 -a 0 -i 4 -k AGT
h -t 1.001947203 -s 1 -d -1 -p cbr -e 1000 -c 2 -a 0 -i 4 -k AGT
+ -t 1.001947203 -s 1 -d 0 -p cbr -e 1020 -c 2 -a 0 -i 4 -k RTR 
- -t 1.001947203 -s 1 -d 0 -p cbr -e 1020 -c 2 -a 0 -i 4 -k RTR
h -t 1.001947203 -s 1 -d 0 -p cbr -e 1020 -c 2 -a 0 -i 4 -k RTR
r -t 1.002327564 -s 0 -d 0 -p cbr -e 1020 -c 2 -a 0 -i 4 -k AGT
+ -t 1.002600717 -s 1 -d -1 -p cbr -e 1000 -c 2 -a 0 -i 5 -k AGT 
- -t 1.002600717 -s 1 -d -1 -p cbr -e 1000 -c 2 -a 0 -i 5 -k AGT
h -t 1.002600717 -s 1 -d -1 -p cbr -e 1000 -c 2 -a 0 -i 5 -k AGT
+ -t 1.002600717 -s 1 -d 0 -p cbr -e 1020 -c 2 -a 0 -i 5 -k RTR 
- -t 1.002600717 -s 1 -d 0 -p cbr -e 1020 -c 2 -a 0 -i 5 -k RTR
h -t 1.002600717 -s 1 -d 0 -p cbr -e 1020 -c 2 -a 0 -i 5 -k RTR
r -t 1.002945078 -s 0 -d 0 -p cbr -e 1020 -c 2 -a 0 -i 5 -k AGT
+ -t 1.003055060 -s 1 -d -1 -p cbr -e 1000 -c 2 -a 0 -i 6 -k AGT 
- -t 1.003055060 -s 1 -d -1 -p cbr -e 1000 -c 2 -a 0 -i 6 -k AGT
h -t 1.003055060 -s 1 -d -1 -p cbr -e 1000 -c 2 -a 0 -i 6 -k AGT
+ -t 1.003055060 -s 1 -d 0 -p cbr -e 1020 -c 2 -a 0 -i 6 -k RTR 
- -t 1.003055060 -s 1 -d 0 -p cbr -e 1020 -c 2 -a 0 -i 6 -k RTR
h -t 1.003055060 -s 1 -d 0 -p cbr -e 1020 -c 2 -a 0 -i 6 -k RTR
r -t 1.003297320 -s 0 -d 0 -p cbr -e 1020 -c 2 -a 0 -i 6 -k AGT
+ -t 1.003651213 -s 1 -d -1 -p cbr -e 1000 -c 2 -a 0 -i 7 -k AGT 
- -t 1.003651213 -s 1 -d -1 -p cbr -e 1000 -c 2 -a 0 -i 7 -k AGT
h -t 1.003651213 -s 1 -d -1 -p cbr -e 1000 -c 2 -a 0 -i 7 -k AGT
+ -t 1.003651213 -s 1 -d 0 -p cbr -e 1020 -c 2 -a 0 -i 7 -k RTR 
- -t 1.003651213 -s 1 -d 0 -p cbr -e 1020 -c 2 -a 0 -i 7 -k RTR
h -t 1.003651213 -s 1 -d 0 -p cbr -e 1020 -c 2 -a 0 -i 7 -k RTR
r -t 1.003932575 -s 0 -d 0 -p cbr -e 1020 -c 2 -a 0 -i 7 -k AGT
+ -t 1.004321126 -s 1 -d -1 -p cbr -e 1000 -c 2 -a 0 -i 8 -k AGT 
- -t 1.004321126 -s 1 -d -1 -p cbr -e 1000 -c 2 -a 0 -i 8 -k AGT
h -t 1.004321126 -s 1 -d -1 -p cbr -e 1000 -c 2 -a 0 -i 8 -k AGT
+ -t 1.004321126 -s 1 -d 0 -p cbr -e 1020 -c 2 -a 0 -i 8 -k RTR 
- -t 1.004321126 -s 1 -d 0 -p cbr -e 1020 -c 2 -a 0 -i 8 -k RTR
h -t 1.004321126 -s 1 -d 0 -p cbr -e 1020 -c 2 -a 0 -i 8 -k RTR
r -t 1.004701487 -s 0 -d 0 -p cbr -e 1020 -c 2 -a 0 -i 8 -k AGT
+ -t 1.004996679 -s 1 -d -1 -p cbr -e 1000 -c 2 -a 0 -i 9 -k AGT 
- -t 1.004996679 -s 1 -d -1 -p cbr -e 1000 -c 2 -a 0 -i 9 -k AGT
h -t 1.004996679 -s 1 -d -1 -p cbr -e 1000 -c 2 -a 0 -i 9 -k AGT
+ -t 1.004996679 -s 1 -d 0 -p cbr -e 1020 -c 2 -a 0 -i 9 -k RTR 
- -t 1.004996679 -s 1 -d 0 -p cbr -e 1020 -c 2 -a 0 -i 9 -k RTR
h -t 1.004996679 -s 1 -d 0 -p cbr -e 1020 -c 2 -a 0 -i 9 -k RTR
r -t 1.005314041 -s 0 -d 0 -p cbr -e 1020 -c 2 -a 0 -i 9 -k AGT
+ -t 1.005699152 -s 1 -d -1 -p cbr -e 1000 -c 2 -a 0 -i 10 -k AGT 
- -t 1.005699152 -s 1 -d -1 -p cbr -e 1000 -c 2 -a 0 -i 10 -k AGT
h -t 1.005699152 -s 1 -d -1 -p cbr -e 1000 -c 2 -a 0 -i 10 -k AGT
+ -t 1.005699152 -s 1 -d 0 -p cbr -e 1020 -c 2 -a 0 -i 10 -k RTR 
- -t 1.005699152 -s 1 -d 0 -p cbr -e 1020 -c 2 -a 0 -i 10 -k RTR
h -t 1.005699152 -s 1 -d 0 -p cbr -e 1020 -c 2 -a 0 -i 10 -k RTR
r -t 1.006061513 -s 0 -d 0 -p cbr -e 1020 -c 2 -a 0 -i 10 -k AGT
+ -t 1.006151255 -s 1 -d -1 -p cbr -e 1000 -c 2 -a 0 -i 11 -k AGT 
- -t 1.006151255 -s 1 -d -1 -p cbr -e 1000 -c 2 -a 0 -i 11 -k AGT
h -t 1.006151255 -s 1 -d -1 -p cbr -e 1000 -c 2 -a 0 -i 11 -k AGT
+ -t 1.006151255 -s 1 -d 0 -p cbr -e 1020 -c 2 -a 0 -i 11 -k RTR 
- -t 1.006151255 -s 1 -d 0 -p cbr -e 1020 -c 2 -a 0 -i 11 -k RTR
h -t 1.006151255 -s 1 -d 0 -p cbr -e 1020 -c 2 -a 0 -i 11 -k RTR
r -t 1.006431755 -s 0 -d 0 -p cbr -e 1020 -c 2 -a 0 -i 11 -k AGT
+ -t 1.006874388 -s 1 -d -1 -p cbr -e 1000 -c 2 -a 0 -i 12 -k AGT 
- -t 1.006874388 -s 1 -d -1 -p cbr -e 1000 -c 2 -a 0 -i 12 -k AGT
h -t 1.006874388 -s 1 -d -1 -p cbr -e 1000 -c 2 -a 0 -i 12 -k AGT
+ -t 1.006874388 -s 1 -d 0 -p cbr -e 1020 -c 2 -a 0 -i 12 -k RTR 
- -t 1.006874388 -s 1 -d 0 -p cbr -e 1020 -c 2 -a 0 -i 12 -k RTR
h -t 1.006874388 -s 1 -d 0 -p cbr -e 1020 -c 2 -a 0 -i 12 -k RTR
+ -t 1.007180404 -s 1 -d -1 -p cbr -e 1000 -c 2 -a 0 -i 13 -k AGT 
- -t 1.007180404 -s 1 -d -1 -p cbr -e 1000 -c 2 -a 0 -i 13 -k AGT
h -t 1.007180404 -s 1 -d -1 -p cbr -e 1000 -c 2 -a 0 -i 13 -k AGT
+ -t 1.007180404 -s 1 -d 0 -p cbr -e 1020 -c 2 -a 0 -i 13 -k RTR 
- -t 1.007180404 -s 1 -d 0 -p cbr -e 1020 -c 2 -a 0 -i 13 -k RTR
h -t 1.007180404 -s 1 -d 0 -p cbr -e 1020 -c 2 -a 0 -i 13 -k RTR
r -t 1.007236750 -s 0 -d 0 -p cbr -e 1020 -c 2 -a 0 -i 12 -k AGT
+ -t 1.007435808 -s 1 -d -1 -p cbr -e 1000 -c 2 -a 0 -i 14 -k AGT 
- -t 1.007435808 -s 1 -d -1 -p cbr -e 1000 -c 2 -a 0 -i 14 -k AGT
h -t 1.007435808 -s 1 -d -1 -p cbr -e 1000 -c 2 -a 0 -i 14 -k AGT
+ -t 1.007435808 -s 1 -d 0 -p cbr -e 1020 -c 2 -a 0 -i 14 -k RTR 
- -t 1.007435808 -s 1 -d 0 -p cbr -e 1020 -c 2 -a 0 -i 14 -k RTR
h -t 1.007435808 -s 1 -d 0 -p cbr -e 1020 -c 2 -a 0 -i 14 -k RTR
r -t 1.007489991 -s 0 -d 0 -p cbr -e 1020 -c 2 -a 0 -i 13 -k AGT
+ -t 1.007853639 -s 1 -d -1 -p cbr -e 1000 -c 2 -a 0 -i 15 -k AGT 
- -t 1.007853639 -s 1 -d -1 -p cbr -e 1000 -c 2 -a 0 -i 15 -k AGT
h -t 1.007853639 -s 1 -d -1 -p cbr -e 1000 -c 2 -a 0 -i 15 -k AGT
+ -t 1.007853639 -s 1 -d 0 -p cbr -e 1020 -c 2 -a 0 -i 15 -k RTR 
- -t 1.007853639 -s 1 -d 0 -p cbr -e 1020 -c 2 -a 0 -i 15 -k RTR
h -t 1.007853639 -s 1 -d 0 -p cbr -e 1020 -c 2 -a 0 -i 15 -k RTR
r -t 1.007869233 -s 0 -d 0 -p cbr -e 1020 -c 2 -a 0 -i 14 -k AGT
+ -t 1.008199155 -s 2 -d -1 -p AODV -e 48 -c 2 -a 0 -i 0 -k RTR 
- -t 1.008199155 -s 2 -d -1 -p AODV -e 48 -c 2 -a 0 -i 0 -k RTR
h -t 1.008199155 -s 2 -d -1 -p AODV -e 48 -c 2 -a 0 -i 0 -k RTR
r -t 1.008230475 -s 0 -d 0 -p cbr -e 1020 -c 2 -a 0 -i 15 -k AGT
+ -t 1.008437951 -s 1 -d -1 -p cbr -e 1000 -c 2 -a 0 -i 16 -k AGT 
- -t 1.008437951 -s 1 -d -1 -p cbr -e 1000 -c 2 -a 0 -i 16 -k AGT
h -t 1.008437951 -s 1 -d -1 -p cbr -e 1000 -c 2 -a 0 -i 16 -k AGT
+ -t 1.008437951 -s 1 -d 0 -p cbr -e 1020 -c 2 -a 0 -i 16 -k RTR 
- -t 1.008437951 -s 1 -d 0 -p cbr -e 1020 -c 2 -a 0 -i 16 -k RTR
h -t 1.008437951 -s 1 -d 0 -p cbr -e 1020 -c 2 -a 0 -i 16 -k RTR
r -t 1.008473075 -s 0 -d -1 -p AODV -e 48 -c 2 -a 0 -i 0 -k RTR
r -t 1.008473128 -s 1 -d -1 -p AODV -e 48 -c 2 -a 0 -i 0 -k RTR
r -t 1.008791313 -s 0 -d 0 -p cbr -e 1020 -c 2 -a 0 -i 16 -k AGT
+ -t 1.009126279 -s 1 -d -1 -p cbr -e 1000 -c 2 -a 0 -i 17 -k AGT 
- -t 1.009126279 -s 1 -d -1 -p cbr -e 1000 -c 2 -a 0 -i 17 -k AGT
h -t 1.009126279 -s 1 -d -1 -p cbr -e 1000 -c 2 -a 0 -i 17 -k AGT
+ -t 1.009126279 -s 1 -d 0 -p cbr -e 1020 -c 2 -a 0 -i 17 -k RTR 
- -t 1.009126279 -s 1 -d 0 -p cbr -e 1020 -c 2 -a 0 -i 17 -k RTR
h -t 1.009126279 -s 1 -d 0 -p cbr -e 1020 -c 2 -a 0 -i 17 -k RTR
+ -t 1.009390058 -s 1 -d -1 -p cbr -e 1000 -c 2 -a 0 -i 18 -k AGT 
- -t 1.009390058 -s 1 -d -1 -p cbr -e 1000 -c 2 -a 0 -i 18 -k AGT
h -t 1.009390058 -s 1 -d -1 -p cbr -e 1000 -c 2 -a 0 -i 18 -k AGT
+ -t 1.009390058 -s 1 -d 0 -p cbr -e 1020 -c 2 -a 0 -i 18 -k RTR 
- -t 1.009390058 -s 1 -d 0 -p cbr -e 1020 -c 2 -a 0 -i 18 -k RTR
h -t 1.009390058 -s 1 -d 0 -p cbr -e 1020 -c 2 -a 0 -i 18 -k RTR
r -t 1.009497641 -s 0 -d 0 -p cbr -e 1020 -c 2 -a 0 -i 17 -k AGT
+ -t 1.009733165 -s 1 -d -1 -p cbr -e 1000 -c 2 -a 0 -i 19 -k AGT 
- -t 1.009733165 -s 1 -d -1 -p cbr -e 1000 -c 2 -a 0 -i 19 -k AGT
h -t 1.009733165 -s 1 -d -1 -p cbr -e 1000 -c 2 -a 0 -i 19 -k AGT
+ -t 1.009733165 -s 1 -d 0 -p cbr -e 1020 -c 2 -a 0 -i 19 -k RTR 
- -t 1.009733165 -s 1 -d 0 -p cbr -e 1020 -c 2 -a 0 -i 19 -k RTR
h -t 1.009733165 -s 1 -d 0 -p cbr -e 1020 -c 2 -a 0 -i 19 -k RTR
r -t 1.009759882 -s 0 -d 0 -p cbr -e 1020 -c 2 -a 0 -i 18 -k AGT
r -t 1.010103124 -s 0 -d 0 -p cbr -e 1020 -c 2 -a 0 -i 19 -k AGT
+ -t 1.010456573 -s 1 -d -1 -p cbr -e 1000 -c 2 -a 0 -i 20 -k AGT 
- -t 1.010456573 -s 1 -d -1 -p cbr -e 1000 -c 2 -a 0 -i 20 -k AGT
h -t 1.010456573 -s 1 -d -1 -p cbr -e 1000 -c 2 -a 0 -i 20 -k AGT
+ -t 1.010456573 -s 1 -d 0 -p cbr -e 1020 -c 2 -a 0 -i 20 -k RTR 
- -t 1.010456573 -s 1 -d 0 -p cbr -e 1020 -c 2 -a 0 -i 20 -k RTR
h -t 1.010456573 -s 1 -d 0 -p cbr -e 1020 -c 2 -a 0 -i 20 -k RTR
+ -t 1.010737261 -s 1 -d 0 -p cbr -e 1020 -c 2 -a 0 -i 1 -k RTR 
- -t 1.010737261 -s 1 -d 0 -p cbr -e 1020 -c 2 -a 0 -i 1 -k RTR
h -t 1.010737261 -s 1 -d 0 -p cbr -e 1020 -c 2 -a 0 -i 1 -k RTR
r -t 1.010800934 -s 0 -d 0 -p cbr -e 1020 -c 2 -a 0 -i 20 -k AGT
+ -t 1.011054042 -s 1 -d -1 -p cbr -e 1000 -c 2 -a 0 -i 21 -k AGT 
- -t 1.011054042 -s 1 -d -1 -p cbr -e 1000 -c 2 -a 0 -i 21 -k AGT
h -t 1.011054042 -s 1 -d -1 -p cbr -e 1000 -c 2 -a 0 -i 21 -k AGT
+ -t 1.011054042 -s 1 -d 0 -p cbr -e 1020 -c 2 -a 0 -i 21 -k RTR 
- -t 1.011054042 -s 1 -d 0 -p cbr -e 1020 -c 2 -a 0 -i 21 -k RTR
h -t 1.011054042 -s 1 -d 0 -p cbr -e 1020 -c 2 -a 0 -i 21 -k RTR
r -t 1.011171176 -s 0 -d 0 -p cbr -e 1020 -c 2 -a 0 -i 1 -k AGT
+ -t 1.011349720 -s 1 -d -1 -p cbr -e 1000 -c 2 -a 0 -i 22 -k AGT 
- -t 1.011349720 -s 1 -d -1 -p cbr -e 1000 -c 2 -a 0 -i 22 -k AGT
h -t 1.011349720 -s 1 -d -1 -p cbr -e 1000 -c 2 -a 0 -i 22 -k AGT
+ -t 1.011349720 -s 1 -d 0 -p cbr -e 1020 -c 2 -a 0 -i 22 -k RTR 
- -t 1.011349720 -s 1 -d 0 -p cbr -e 1020 -c 2 -a 0 -i 22 -k RTR
h -t 1.011349720 -s 1 -d 0 -p cbr -e 1020 -c 2 -a 0 -i 22 -k RTR
r -t 1.011442418 -s 0 -d 0 -p cbr -e 1020 -c 2 -a 0 -i 21 -k AGT
+ -t 1.011624787 -s 1 -d -1 -p cbr -e 1000 -c 2 -a 0 -i 23 -k AGT 
- -t 1.011624787 -s 1 -d -1 -p cbr -e 1000 -c 2 -a 0 -i 23 -k AGT
h -t 1.011624787 -s 1 -d -1 -p cbr -e 1000 -c 2 -a 0 -i 23 -k AGT
+ -t 1.011624787 -s 1 -d 0 -p cbr -e 1020 -c 2 -a 0 -i 23 -k RTR 
- -t 1.011624787 -s 1 -d 0 -p cbr -e 1020 -c 2 -a 0 -i 23 -k RTR
h -t 1.011624787 -s 1 -d 0 -p cbr -e 1020 -c 2 -a 0 -i 23 -k RTR
r -t 1.011821660 -s 0 -d 0 -p cbr -e 1020 -c 2 -a 0 -i 22 -k AGT
+ -t 1.012141236 -s 1 -d -1 -p cbr -e 1000 -c 2 -a 0 -i 24 -k AGT 
- -t 1.012141236 -s 1 -d -1 -p cbr -e 1000 -c 2 -a 0 -i 24 -k AGT
h -t 1.012141236 -s 1 -d -1 -p cbr -e 1000 -c 2 -a 0 -i 24 -k AGT
+ -t 1.012141236 -s 1 -d 0 -p cbr -e 1020 -c 2 -a 0 -i 24 -k RTR 
- -t 1.012141236 -s 1 -d 0 -p cbr -e 1020 -c 2 -a 0 -i 24 -k RTR
h -t 1.012141236 -s 1 -d 0 -p cbr -e 1020 -c 2 -a 0 -i 24 -k RTR
r -t 1.012182901 -s 0 -d 0 -p cbr -e 1020 -c 2 -a 0 -i 23 -k AGT
r -t 1.012526143 -s 0 -d 0 -p cbr -e 1020 -c 2 -a 0 -i 24 -k AGT
+ -t 1.012601846 -s 1 -d -1 -p cbr -e 1000 -c 2 -a 0 -i 25 -k AGT 
- -t 1.012601846 -s 1 -d -1 -p cbr -e 1000 -c 2 -a 0 -i 25 -k AGT
h -t 1.012601846 -s 1 -d -1 -p cbr -e 1000 -c 2 -a 0 -i 25 -k AGT
+ -t 1.012601846 -s 1 -d 0 -p cbr -e 1020 -c 2 -a 0 -i 25 -k RTR 
- -t 1.012601846 -s 1 -d 0 -p cbr -e 1020 -c 2 -a 0 -i 25 -k RTR
h -t 1.012601846 -s 1 -d 0 -p cbr -e 1020 -c 2 -a 0 -i 25 -k RTR
r -t 1.012860385 -s 0 -d 0 -p cbr -e 1020 -c 2 -a 0 -i 25 -k AGT
+ -t 1.013303270 -s 1 -d -1 -p cbr -e 1000 -c 2 -a 0 -i 26 -k AGT 
- -t 1.013303270 -s 1 -d -1 -p cbr -e 1000 -c 2 -a 0 -i 26 -k AGT
h -t 1.013303270 -s 1 -d -1 -p cbr -e 1000 -c 2 -a 0 -i 26 -k AGT
+ -t 1.013303270 -s 1 -d 0 -p cbr -e 1020 -c 2 -a 0 -i 26 -k RTR 
- -t 1.013303270 -s 1 -d 0 -p cbr -e 1020 -c 2 -a 0 -i 26 -k RTR
h -t 1.013303270 -s 1 -d 0 -p cbr -e 1020 -c 2 -a 0 -i 26 -k RTR
r -t 1.013566631 -s 0 -d 0 -p cbr -e 1020 -c 2 -a 0 -i 26 -k AGT
+ -t 1.013990593 -s 1 -d -1 -p cbr -e 1000 -c 2 -a 0 -i 27 -k AGT 
- -t 1.013990593 -s 1 -d -1 -p cbr -e 1000 -c 2 -a 0 -i 27 -k AGT
h -t 1.013990593 -s 1 -d -1 -p cbr -e 1000 -c 2 -a 0 -i 27 -k AGT
+ -t 1.013990593 -s 1 -d 0 -p cbr -e 1020 -c 2 -a 0 -i 27 -k RTR 
- -t 1.013990593 -s 1 -d 0 -p cbr -e 1020 -c 2 -a 0 -i 27 -k RTR
h -t 1.013990593 -s 1 -d 0 -p cbr -e 1020 -c 2 -a 0 -i 27 -k RTR
r -t 1.014370955 -s 0 -d 0 -p cbr -e 1020 -c 2 -a 0 -i 27 -k AGT
+ -t 1.014641599 -s 1 -d -1 -p cbr -e 1000 -c 2 -a 0 -i 28 -k AGT 
- -t 1.014641599 -s 1 -d -1 -p cbr -e 1000 -c 2 -a 0 -i 28 -k AGT
h -t 1.014641599 -s 1 -d -1 -p cbr -e 1000 -c 2 -a 0 -i 28 -k AGT
+ -t 1.014641599 -s 1 -d 0 -p cbr -e 1020 -c 2 -a 0 -i 28 -k RTR 
- -t 1.014641599 -s 1 -d 0 -p cbr -e 1020 -c 2 -a 0 -i 28 -k RTR
h -t 1.014641599 -s 1 -d 0 -p cbr -e 1020 -c 2 -a 0 -i 28 -k RTR
r -t 1.014958960 -s 0 -d 0 -p cbr -e 1020 -c 2 -a 0 -i 28 -k AGT
+ -t 1.015299390 -s 1 -d -1 -p cbr -e 1000 -c 2 -a 0 -i 29 -k AGT 
- -t 1.015299390 -s 1 -d -1 -p cbr -e 1000 -c 2 -a 0 -i 29 -k AGT
h -t 1.015299390 -s 1 -d -1 -p cbr -e 1000 -c 2 -a 0 -i 29 -k AGT
+ -t 1.015299390 -s 1 -d 0 -p cbr -e 1020 -c 2 -a 0 -i 29 -k RTR 
- -t 1.015299390 -s 1 -d 0 -p cbr -e 1020 -c 2 -a 0 -i 29 -k RTR
h -t 1.015299390 -s 1 -d 0 -p cbr -e 1020 -c 2 -a 0 -i 29 -k RTR
+ -t 1.015624384 -s 1 -d -1 -p cbr -e 1000 -c 2 -a 0 -i 30 -k AGT 
- -t 1.015624384 -s 1 -d -1 -p cbr -e 1000 -c 2 -a 0 -i 30 -k AGT
h -t 1.015624384 -s 1 -d -1 -p cbr -e 1000 -c 2 -a 0 -i 30 -k AGT
+ -t 1.015624384 -s 1 -d 0 -p cbr -e 1020 -c 2 -a 0 -i 30 -k RTR 
- -t 1.015624384 -s 1 -d 0 -p cbr -e 1020 -c 2 -a 0 -i 30 -k RTR
h -t 1.015624384 -s 1 -d 0 -p cbr -e 1020 -c 2 -a 0 -i 30 -k RTR
r -t 1.015643752 -s 0 -d 0 -p cbr -e 1020 -c 2 -a 0 -i 29 -k AGT
r -t 1.015896993 -s 0 -d 0 -p cbr -e 1020 -c 2 -a 0 -i 30 -k AGT
+ -t 1.016147446 -s 1 -d -1 -p cbr -e 1000 -c 2 -a 0 -i 31 -k AGT 
- -t 1.016147446 -s 1 -d -1 -p cbr -e 1000 -c 2 -a 0 -i 31 -k AGT
h -t 1.016147446 -s 1 -d -1 -p cbr -e 1000 -c 2 -a 0 -i 31 -k AGT
+ -t 1.016147446 -s 1 -d 0 -p cbr -e 1020 -c 2 -a 0 -i 31 -k RTR 
- -t 1.016147446 -s 1 -d 0 -p cbr -e 1020 -c 2 -a 0 -i 31 -k RTR
h -t 1.016147446 -s 1 -d 0 -p cbr -e 1020 -c 2 -a 0 -i 31 -k RTR
r -t 1.016401807 -s 0 -d 0 -p cbr -e 1020 -c 2 -a 0 -i 31 -k AGT
+ -t 1.016439161 -s 1 -d -1 -p cbr -e 1000 -c 2 -a 0 -i 32 -k AGT 
- -t 1.016439161 -s 1 -d -1 -p cbr -e 1000 -c 2 -a 0 -i 32 -k AGT
h -t 1.016439161 -s 1 -d -1 -p cbr -e 1000 -c 2 -a 0 -i 32 -k AGT
+ -t 1.016439161 -s 1 -d 0 -p cbr -e 1020 -c 2 -a 0 -i 32 -k RTR 
- -t 1.016439161 -s 1 -d 0 -p cbr -e 1020 -c 2 -a 0 -i 32 -k RTR
h -t 1.016439161 -s 1 -d 0 -p cbr -e 1020 -c 2 -a 0 -i 32 -k RTR
r -t 1.016747522 -s 0 -d 0 -p cbr -e 1020 -c 2 -a 0 -i 32 -k AGT
+ -t 1.017145130 -s 1 -d -1 -p cbr -e 1000 -c 2 -a 0 -i 33 -k AGT 
- -t 1.017145130 -s 1 -d -1 -p cbr -e 1000 -c 2 -a 0 -i 33 -k AGT
h -t 1.017145130 -s 1 -d -1 -p cbr -e 1000 -c 2 -a 0 -i 33 -k AGT
+ -t 1.017145130 -s 1 -d 0 -p cbr -e 1020 -c 2 -a 0 -i 33 -k RTR 
- -t 1.017145130 -s 1 -d 0 -p cbr -e 1020 -c 2 -a 0 -i 33 -k RTR
h -t 1.017145130 -s 1 -d 0 -p cbr -e 1020 -c 2 -a 0 -i 33 -k RTR
r -t 1.017408492 -s 0 -d 0 -p cbr -e 1020 -c 2 -a 0 -i 33 -k AGT
+ -t 1.017547625 -s 1 -d -1 -p cbr -e 1000 -c 2 -a 0 -i 34 -k AGT 
- -t 1.017547625 -s 1 -d -1 -p cbr -e 1000 -c 2 -a 0 -i 34 -k AGT
h -t 1.017547625 -s 1 -d -1 -p cbr -e 1000 -c 2 -a 0 -i 34 -k AGT
+ -t 1.017547625 -s 1 -d 0 -p cbr -e 1020 -c 2 -a 0 -i 34 -k RTR 
- -t 1.017547625 -s 1 -d 0 -p cbr -e 1020 -c 2 -a 0 -i 34 -k RTR
h -t 1.017547625 -s 1 -d 0 -p cbr -e 1020 -c 2 -a 0 -i 34 -k RTR
r -t 1.017810986 -s 0 -d 0 -p cbr -e 1020 -c 2 -a 0 -i 34 -k AGT
+ -t 1.018238254 -s 1 -d -1 -p cbr -e 1000 -c 2 -a 0 -i 35 -k AGT 
- -t 1.018238254 -s 1 -d -1 -p cbr -e 1000 -c 2 -a 0 -i 35 -k AGT
h -t 1.018238254 -s 1 -d -1 -p cbr -e 1000 -c 2 -a 0 -i 35 -k AGT
+ -t 1.018238254 -s 1 -d 0 -p cbr -e 1020 -c 2 -a 0 -i 35 -k RTR 
- -t 1.018238254 -s 1 -d 0 -p cbr -e 1020 -c 2 -a 0 -i 35 -k RTR
h -t 1.018238254 -s 1 -d 0 -p cbr -e 1020 -c 2 -a 0 -i 35 -k RTR
+ -t 1.018573863 -s 1 -d -1 -p cbr -e 1000 -c 2 -a 0 -i 36 -k AGT 
- -t 1.018573863 -s 1 -d -1 -p cbr -e 1000 -c 2 -a 0 -i 36 -k AGT
h -t 1.018573863 -s 1 -d -1 -p cbr -e 1000 -c 2 -a 0 -i 36 -k AGT
+ -t 1.018573863 -s 1 -d 0 -p cbr -e 1020 -c 2 -a 0 -i 36 -k RTR 
- -t 1.018573863 -s 1 -d 0 -p cbr -e 1020 -c 2 -a 0 -i 36 -k RTR
h -t 1.018573863 -s 1 -d 0 -p cbr -e 1020 -c 2 -a 0 -i 36 -k RTR
r -t 1.018618615 -s 0 -d 0 -p cbr -e 1020 -c 2 -a 0 -i 35 -k AGT
r -t 1.018979857 -s 0 -d 0 -p cbr -e 1020 -c 2 -a 0 -i 36 -k AGT
+ -t 1.019201481 -s 1 -d -1 -p cbr -e 1000 -c 2 -a 0 -i 37 -k AGT 
- -t 1.019201481 -s 1 -d -1 -p cbr -e 1000 -c 2 -a 0 -i 37 -k AGT
h -t 1.019201481 -s 1 -d -1 -p cbr -e 1000 -c 2 -a 0 -i 37 -k AGT
+ -t 1.019201481 -s 1 -d 0 -p cbr -e 1020 -c 2 -a 0 -i 37 -k RTR 
- -t 1.019201481 -s 1 -d 0 -p cbr -e 1020 -c 2 -a 0 -i 37 -k RTR
h -t 1.019201481 -s 1 -d 0 -p cbr -e 1020 -c 2 -a 0 -i 37 -k RTR
r -t 1.019455842 -s 0 -d 0 -p cbr -e 1020 -c 2 -a 0 -i 37 -k AGT
+ -t 1.019711854 -s 1 -d -1 -p cbr -e 1000 -c 2 -a 0 -i 38 -k AGT 
- -t 1.019711854 -s 1 -d -1 -p cbr -e 1000 -c 2 -a 0 -i 38 -k AGT
h -t 1.019711854 -s 1 -d -1 -p cbr -e 1000 -c 2 -a 0 -i 38 -k AGT
+ -t 1.019711854 -s 1 -d 0 -p cbr -e 1020 -c 2 -a 0 -i 38 -k RTR 
- -t 1.019711854 -s 1 -d 0 -p cbr -e 1020 -c 2 -a 0 -i 38 -k RTR
h -t 1.019711854 -s 1 -d 0 -p cbr -e 1020 -c 2 -a 0 -i 38 -k RTR
+ -t 1.019969853 -s 1 -d -1 -p cbr -e 1000 -c 2 -a 0 -i 39 -k AGT 
- -t 1.019969853 -s 1 -d -1 -p cbr -e 1000 -c 2 -a 0 -i 39 -k AGT
h -t 1.019969853 -s 1 -d -1 -p cbr -e 1000 -c 2 -a 0 -i 39 -k AGT
+ -t 1.019969853 -s 1 -d 0 -p cbr -e 1020 -c 2 -a 0 -i 39 -k RTR 
- -t 1.019969853 -s 1 -d 0 -p cbr -e 1020 -c 2 -a 0 -i 39 -k RTR
h -t 1.019969853 -s 1 -d 0 -p cbr -e 1020 -c 2 -a 0 -i 39 -k RTR
r -t 1.020092216 -s 0 -d 0 -p cbr -e 1020 -c 2 -a 0 -i 38 -k AGT
r -t 1.020399458 -s 0 -d 0 -p cbr -e 1020 -c 2 -a 0 -i 39 -k AGT
+ -t 1.020438464 -s 1 -d -1 -p cbr -e 1000 -c 2 -a 0 -i 40 -k AGT 
- -t 1.020438464 -s 1 -d -1 -p cbr -e 1000 -c 2 -a 0 -i 40 -k AGT
h -t 1.020438464 -s 1 -d -1 -p cbr -e 1000 -c 2 -a 0 -i 40 -k AGT
+ -t 1.020438464 -s 1 -d 0 -p cbr -e 1020 -c 2 -a 0 -i 40 -k RTR 
- -t 1.020438464 -s 1 -d 0 -p cbr -e 1020 -c 2 -a 0 -i 40 -k RTR
h -t 1.020438464 -s 1 -d 0 -p cbr -e 1020 -c 2 -a 0 -i 40 -k RTR
r -t 1.020670699 -s 0 -d 0 -p cbr -e 1020 -c 2 -a 0 -i 40 -k AGT
+ -t 1.021138171 -s 1 -d -1 -p cbr -e 1000 -c 2 -a 0 -i 41 -k AGT 
- -t 1.021138171 -s 1 -d -1 -p cbr -e 1000 -c 2 -a 0 -i 41 -k AGT
h -t 1.021138171 -s 1 -d -1 -p cbr -e 1000 -c 2 -a 0 -i 41 -k AGT
+ -t 1.021138171 -s 1 -d 0 -p cbr -e 1020 -c 2 -a 0 -i 41 -k RTR 
- -t 1.021138171 -s 1 -d 0 -p cbr -e 1020 -c 2 -a 0 -i 41 -k RTR
h -t 1.021138171 -s 1 -d 0 -p cbr -e 1020 -c 2 -a 0 -i 41 -k RTR
r -t 1.021419533 -s 0 -d 0 -p cbr -e 1020 -c 2 -a 0 -i 41 -k AGT
+ -t 1.021603374 -s 1 -d -1 -p cbr -e 1000 -c 2 -a 0 -i 42 -k AGT 
- -t 1.021603374 -s 1 -d -1 -p cbr -e 1000 -c 2 -a 0 -i 42 -k AGT
h -t 1.021603374 -s 1 -d -1 -p cbr -e 1000 -c 2 -a 0 -i 42 -k AGT
+ -t 1.021603374 -s 1 -d 0 -p cbr -e 1020 -c 2 -a 0 -i 42 -k RTR 
- -t 1.021603374 -s 1 -d 0 -p cbr -e 1020 -c 2 -a 0 -i 42 -k RTR
h -t 1.021603374 -s 1 -d 0 -p cbr -e 1020 -c 2 -a 0 -i 42 -k RTR
r -t 1.021947735 -s 0 -d 0 -p cbr -e 1020 -c 2 -a 0 -i 42 -k AGT
+ -t 1.022221200 -s 1 -d -1 -p cbr -e 1000 -c 2 -a 0 -i 43 -k AGT 
- -t 1.022221200 -s 1 -d -1 -p cbr -e 1000 -c 2 -a 0 -i 43 -k AGT
h -t 1.022221200 -s 1 -d -1 -p cbr -e 1000 -c 2 -a 0 -i 43 -k AGT
+ -t 1.022221200 -s 1 -d 0 -p cbr -e 1020 -c 2 -a 0 -i 43 -k RTR 
- -t 1.022221200 -s 1 -d 0 -p cbr -e 1020 -c 2 -a 0 -i 43 -k RTR
h -t 1.022221200 -s 1 -d 0 -p cbr -e 1020 -c 2 -a 0 -i 43 -k RTR
r -t 1.022601562 -s 0 -d 0 -p cbr -e 1020 -c 2 -a 0 -i 43 -k AGT
+ -t 1.022782645 -s 1 -d -1 -p cbr -e 1000 -c 2 -a 0 -i 44 -k AGT 
- -t 1.022782645 -s 1 -d -1 -p cbr -e 1000 -c 2 -a 0 -i 44 -k AGT
h -t 1.022782645 -s 1 -d -1 -p cbr -e 1000 -c 2 -a 0 -i 44 -k AGT
+ -t 1.022782645 -s 1 -d 0 -p cbr -e 1020 -c 2 -a 0 -i 44 -k RTR 
- -t 1.022782645 -s 1 -d 0 -p cbr -e 1020 -c 2 -a 0 -i 44 -k RTR
h -t 1.022782645 -s 1 -d 0 -p cbr -e 1020 -c 2 -a 0 -i 44 -k RTR
r -t 1.023127007 -s 0 -d 0 -p cbr -e 1020 -c 2 -a 0 -i 44 -k AGT
+ -t 1.023150416 -s 1 -d -1 -p cbr -e 1000 -c 2 -a 0 -i 45 -k AGT 
- -t 1.023150416 -s 1 -d -1 -p cbr -e 1000 -c 2 -a 0 -i 45 -k AGT
h -t 1.023150416 -s 1 -d -1 -p cbr -e 1000 -c 2 -a 0 -i 45 -k AGT
+ -t 1.023150416 -s 1 -d 0 -p cbr -e 1020 -c 2 -a 0 -i 45 -k RTR 
- -t 1.023150416 -s 1 -d 0 -p cbr -e 1020 -c 2 -a 0 -i 45 -k RTR
h -t 1.023150416 -s 1 -d 0 -p cbr -e 1020 -c 2 -a 0 -i 45 -k RTR
r -t 1.023389249 -s 0 -d 0 -p cbr -e 1020 -c 2 -a 0 -i 45 -k AGT
+ -t 1.023488758 -s 1 -d -1 -p cbr -e 1000 -c 2 -a 0 -i 46 -k AGT 
- -t 1.023488758 -s 1 -d -1 -p cbr -e 1000 -c 2 -a 0 -i 46 -k AGT
h -t 1.023488758 -s 1 -d -1 -p cbr -e 1000 -c 2 -a 0 -i 46 -k AGT
+ -t 1.023488758 -s 1 -d 0 -p cbr -e 1020 -c 2 -a 0 -i 46 -k RTR 
- -t 1.023488758 -s 1 -d 0 -p cbr -e 1020 -c 2 -a 0 -i 46 -k RTR
h -t 1.023488758 -s 1 -d 0 -p cbr -e 1020 -c 2 -a 0 -i 46 -k RTR
r -t 1.023869120 -s 0 -d 0 -p cbr -e 1020 -c 2 -a 0 -i 46 -k AGT
+ -t 1.024028009 -s 1 -d -1 -p cbr -e 1000 -c 2 -a 0 -i 47 -k AGT 
- -t 1.024028009 -s 1 -d -1 -p cbr -e 1000 -c 2 -a 0 -i 47 -k AGT
h -t 1.024028009 -s 1 -d -1 -p cbr -e 1000 -c 2 -a 0 -i 47 -k AGT
+ -t 1.024028009 -s 1 -d 0 -p cbr -e 1020 -c 2 -a 0 -i 47 -k RTR 
- -t 1.024028009 -s 1 -d 0 -p cbr -e 1020 -c 2 -a 0 -i 47 -k RTR
h -t 1.024028009 -s 1 -d 0 -p cbr -e 1020 -c 2 -a 0 -i 47 -k RTR
r -t 1.024309370 -s 0 -d 0 -p cbr -e 1020 -c 2 -a 0 -i 47 -k AGT
+ -t 1.024693129 -s 1 -d -1 -p cbr -e 1000 -c 2 -a 0 -i 48 -k AGT 
- -t 1.024693129 -s 1 -d -1 -p cbr -e 1000 -c 2 -a 0 -i 48 -k AGT
h -t 1.024693129 -s 1 -d -1 -p cbr -e 1000 -c 2 -a 0 -i 48 -k AGT
+ -t 1.024693129 -s 1 -d 0 -p cbr -e 1020 -c 2 -a 0 -i 48 -k RTR 
- -t 1.024693129 -s 1 -d 0 -p cbr -e 1020 -c 2 -a 0 -i 48 -k RTR
h -t 1.024693129 -s 1 -d 0 -p cbr -e 1020 -c 2 -a 0 -i 48 -k RTR
r -t 1.024974491 -s 0 -d 0 -p cbr -e 1020 -c 2 -a 0 -i 48 -k AGT
+ -t 1.025340148 -s 1 -d -1 -p cbr -e 1000 -c 2 -a 0 -i 49 -k AGT 
- -t 1.025340148 -s 1 -d -1 -p cbr -e 1000 -c 2 -a 0 -i 49 -k AGT
h -t 1.025340148 -s 1 -d -1 -p cbr -e 1000 -c 2 -a 0 -i 49 -k AGT
+ -t 1.025340148 -s 1 -d 0 -p cbr -e 1020 -c 2 -a 0 -i 49 -k RTR 
- -t 1.025340148 -s 1 -d 0 -p cbr -e 1020 -c 2 -a 0 -i 49 -k RTR
h -t 1.025340148 -s 1 -d 0 -p cbr -e 1020 -c 2 -a 0 -i 49 -k RTR
r -t 1.025603510 -s 0 -d 0 -p cbr -e 1020 -c 2 -a 0 -i 49 -k AGT
+ -t 1.025704637 -s 1 -d -1 -p cbr -e 1000 -c 2 -a 0 -i 50 -k AGT 
- -t 1.025704637 -s 1 -d -1 -p cbr -e 1000 -c 2 -a 0 -i 50 -k AGT
h -t 1.025704637 -s 1 -d -1 -p cbr -e 1000 -c 2 -a 0 -i 50 -k AGT
+ -t 1.025704637 -s 1 -d 0 -p cbr -e 1020 -c 2 -a 0 -i 50 -k RTR 
- -t 1.025704637 -s 1 -d 0 -p cbr -e 1020 -c 2 -a 0 -i 50 -k RTR
h -t 1.025704637 -s 1 -d 0 -p cbr -e 1020 -c 2 -a 0 -i 50 -k RTR
r -t 1.026048998 -s 0 -d 0 -p cbr -e 1020 -c 2 -a 0 -i 50 -k AGT
+ -t 1.026184624 -s 1 -d -1 -p cbr -e 1000 -c 2 -a 0 -i 51 -k AGT 
- -t 1.026184624 -s 1 -d -1 -p cbr -e 1000 -c 2 -a 0 -i 51 -k AGT
h -t 1.026184624 -s 1 -d -1 -p cbr -e 1000 -c 2 -a 0 -i 51 -k AGT
+ -t 1.026184624 -s 1 -d 0 -p cbr -e 1020 -c 2 -a 0 -i 51 -k RTR 
- -t 1.026184624 -s 1 -d 0 -p cbr -e 1020 -c 2 -a 0 -i 51 -k RTR
h -t 1.026184624 -s 1 -d 0 -p cbr -e 1020 -c 2 -a 0 -i 51 -k RTR
r -t 1.026447985 -s 0 -d 0 -p cbr -e 1020 -c 2 -a 0 -i 51 -k AGT
+ -t 1.026887477 -s 1 -d -1 -p cbr -e 1000 -c 2 -a 0 -i 52 -k AGT 
- -t 1.026887477 -s 1 -d -1 -p cbr -e 1000 -c 2 -a 0 -i 52 -k AGT
h -t 1.026887477 -s 1 -d -1 -p cbr -e 1000 -c 2 -a 0 -i 52 -k AGT
+ -t 1.026887477 -s 1 -d 0 -p cbr -e 1020 -c 2 -a 0 -i 52 -k RTR 
- -t 1.026887477 -s 1 -d 0 -p cbr -e 1020 -c 2 -a 0 -i 52 -k RTR
h -t 1.026887477 -s 1 -d 0 -p cbr -e 1020 -c 2 -a 0 -i 52 -k RTR
r -t 1.027186839 -s 0 -d 0 -p cbr -e 1020 -c 2 -a 0 -i 52 -k AGT
+ -t 1.027407593 -s 1 -d -1 -p cbr -e 1000 -c 2 -a 0 -i 53 -k AGT 
- -t 1.027407593 -s 1 -d -1 -p cbr -e 1000 -c 2 -a 0 -i 53 -k AGT
h -t 1.027407593 -s 1 -d -1 -p cbr -e 1000 -c 2 -a 0 -i 53 -k AGT
+ -t 1.027407593 -s 1 -d 0 -p cbr -e 1020 -c 2 -a 0 -i 53 -k RTR 
- -t 1.027407593 -s 1 -d 0 -p cbr -e 1020 -c 2 -a 0 -i 53 -k RTR
h -t 1.027407593 -s 1 -d 0 -p cbr -e 1020 -c 2 -a 0 -i 53 -k RTR
r -t 1.027715955 -s 0 -d 0 -p cbr -e 1020 -c 2 -a 0 -i 53 -k AGT
+ -t 1.028143508 -s 1 -d -1 -p cbr -e 1000 -c 2 -a 0 -i 54 -k AGT 
- -t 1.028143508 -s 1 -d -1 -p cbr -e 1000 -c 2 -a 0 -i 54 -k AGT
h -t 1.028143508 -s 1 -d -1 -p cbr -e 1000 -c 2 -a 0 -i 54 -k AGT
+ -t 1.028143508 -s 1 -d 0 -p cbr -e 1020 -c 2 -a 0 -i 54 -k RTR 
- -t 1.028143508 -s 1 -d 0 -p cbr -e 1020 -c 2 -a 0 -i 54 -k RTR
h -t 1.028143508 -s 1 -d 0 -p cbr -e 1020 -c 2 -a 0 -i 54 -k RTR
r -t 1.028469870 -s 0 -d 0 -p cbr -e 1020 -c 2 -a 0 -i 54 -k AGT
+ -t 1.028758402 -s 1 -d -1 -p cbr -e 1000 -c 2 -a 0 -i 55 -k AGT 
- -t 1.028758402 -s 1 -d -1 -p cbr -e 1000 -c 2 -a 0 -i 55 -k AGT
h -t 1.028758402 -s 1 -d -1 -p cbr -e 1000 -c 2 -a 0 -i 55 -k AGT
+ -t 1.028758402 -s 1 -d 0 -p cbr -e 1020 -c 2 -a 0 -i 55 -k RTR 
- -t 1.028758402 -s 1 -d 0 -p cbr -e 1020 -c 2 -a 0 -i 55 -k RTR
h -t 1.028758402 -s 1 -d 0 -p cbr -e 1020 -c 2 -a 0 -i 55 -k RTR
r -t 1.029120764 -s 0 -d 0 -p cbr -e 1020 -c 2 -a 0 -i 55 -k AGT
+ -t 1.029383249 -s 1 -d -1 -p cbr -e 1000 -c 2 -a 0 -i 56 -k AGT 
- -t 1.029383249 -s 1 -d -1 -p cbr -e 1000 -c 2 -a 0 -i 56 -k AGT
h -t 1.029383249 -s 1 -d -1 -p cbr -e 1000 -c 2 -a 0 -i 56 -k AGT
+ -t 1.029383249 -s 1 -d 0 -p cbr -e 1020 -c 2 -a 0 -i 56 -k RTR 
- -t 1.029383249 -s 1 -d 0 -p cbr -e 1020 -c 2 -a 0 -i 56 -k RTR
h -t 1.029383249 -s 1 -d 0 -p cbr -e 1020 -c 2 -a 0 -i 56 -k RTR
r -t 1.029637610 -s 0 -d 0 -p cbr -e 1020 -c 2 -a 0 -i 56 -k AGT
+ -t 1.029961877 -s 1 -d -1 -p cbr -e 1000 -c 2 -a 0 -i 57 -k AGT 
- -t 1.029961877 -s 1 -d -1 -p cbr -e 1000 -c 2 -a 0 -i 57 -k AGT
h -t 1.029961877 -s 1 -d -1 -p cbr -e 1000 -c 2 -a 0 -i 57 -k AGT
+ -t 1.029961877 -s 1 -d 0 -p cbr -e 1020 -c 2 -a 0 -i 57 -k RTR 
- -t 1.029961877 -s 1 -d 0 -p cbr -e 1020 -c 2 -a 0 -i 57 -k RTR
h -t 1.029961877 -s 1 -d 0 -p cbr -e 1020 -c 2 -a 0 -i 57 -k RTR
r -t 1.030252239 -s 0 -d 0 -p cbr -e 1020 -c 2 -a 0 -i 57 -k AGT
+ -t 1.030401196 -s 1 -d -1 -p cbr -e 1000 -c 2 -a 0 -i 58 -k AGT 
- -t 1.030401196 -s 1 -d -1 -p cbr -e 1000 -c 2 -a 0 -i 58 -k AGT
h -t 1.030401196 -s 1 -d -1 -p cbr -e 1000 -c 2 -a 0 -i 58 -k AGT
+ -t 1.030401196 -s 1 -d 0 -p cbr -e 1020 -c 2 -a 0 -i 58 -k RTR 
- -t 1.030401196 -s 1 -d 0 -p cbr -e 1020 -c 2 -a 0 -i 58 -k RTR
h -t 1.030401196 -s 1 -d 0 -p cbr -e 1020 -c 2 -a 0 -i 58 -k RTR
r -t 1.030664557 -s 0 -d 0 -p cbr -e 1020 -c 2 -a 0 -i 58 -k AGT
+ -t 1.031078473 -s 1 -d -1 -p cbr -e 1000 -c 2 -a 0 -i 59 -k AGT 
- -t 1.031078473 -s 1 -d -1 -p cbr -e 1000 -c 2 -a 0 -i 59 -k AGT
h -t 1.031078473 -s 1 -d -1 -p cbr -e 1000 -c 2 -a 0 -i 59 -k AGT
+ -t 1.031078473 -s 1 -d 0 -p cbr -e 1020 -c 2 -a 0 -i 59 -k RTR 
- -t 1.031078473 -s 1 -d 0 -p cbr -e 1020 -c 2 -a 0 -i 59 -k RTR
h -t 1.031078473 -s 1 -d 0 -p cbr -e 1020 -c 2 -a 0 -i 59 -k RTR
r -t 1.031359835 -s 0 -d 0 -p cbr -e 1020 -c 2 -a 0 -i 59 -k AGT
+ -t 1.031424925 -s 1 -d -1 -p cbr -e 1000 -c 2 -a 0 -i 60 -k AGT 
- -t 1.031424925 -s 1 -d -1 -p cbr -e 1000 -c 2 -a 0 -i 60 -k AGT
h -t 1.031424925 -s 1 -d -1 -p cbr -e 1000 -c 2 -a 0 -i 60 -k AGT
+ -t 1.031424925 -s 1 -d 0 -p cbr -e 1020 -c 2 -a 0 -i 60 -k RTR 
- -t 1.031424925 -s 1 -d 0 -p cbr -e 1020 -c 2 -a 0 -i 60 -k RTR
h -t 1.031424925 -s 1 -d 0 -p cbr -e 1020 -c 2 -a 0 -i 60 -k RTR
r -t 1.031712077 -s 0 -d 0 -p cbr -e 1020 -c 2 -a 0 -i 60 -k AGT
+ -t 1.031734633 -s 1 -d -1 -p cbr -e 1000 -c 2 -a 0 -i 61 -k AGT 
- -t 1.031734633 -s 1 -d -1 -p cbr -e 1000 -c 2 -a 0 -i 61 -k AGT
h -t 1.031734633 -s 1 -d -1 -p cbr -e 1000 -c 2 -a 0 -i 61 -k AGT
+ -t 1.031734633 -s 1 -d 0 -p cbr -e 1020 -c 2 -a 0 -i 61 -k RTR 
- -t 1.031734633 -s 1 -d 0 -p cbr -e 1020 -c 2 -a 0 -i 61 -k RTR
h -t 1.031734633 -s 1 -d 0 -p cbr -e 1020 -c 2 -a 0 -i 61 -k RTR
+ -t 1.032011591 -s 1 -d -1 -p cbr -e 1000 -c 2 -a 0 -i 62 -k AGT 
- -t 1.032011591 -s 1 -d -1 -p cbr -e 1000 -c 2 -a 0 -i 62 -k AGT
h -t 1.032011591 -s 1 -d -1 -p cbr -e 1000 -c 2 -a 0 -i 62 -k AGT
+ -t 1.032011591 -s 1 -d 0 -p cbr -e 1020 -c 2 -a 0 -i 62 -k RTR 