s 1.000000000 _1_ AGT  --- 0 cbr 1000 [0 0 0 0] ------- [1:0 0:0 32 0] [0] 0 0
r 1.000000000 _1_ RTR  --- 0 cbr 1000 [0 0 0 0] ------- [1:0 0:0 32 0] [0] 0 0
s 1.000000000 _1_ RTR  --- 0 AODV 48 [0 0 0 0] ------- [1:255 -1:255 30 0] [0x2 1 1 [0 0] [1 4]] (REQUEST)
r 1.000207547 _0_ RTR  --- 0 AODV 48 [0 ffffffff 1 800] ------- [1:255 -1:255 30 0] [0x2 1 1 [0 0] [1 4]] (REQUEST)
s 1.000207547 _0_ RTR  --- 0 AODV 44 [0 0 0 0] ------- [0:255 1:255 30 1] [0x4 1 [0 4] 10.000000] (REPLY)
r 1.000207600 _2_ RTR  --- 0 AODV 48 [0 ffffffff 1 800] ------- [1:255 -1:255 30 0] [0x2 1 1 [0 0] [1 4]] (REQUEST)
s 1.000257102 _1_ AGT  --- 1 cbr 1000 [0 0 0 0] ------- [1:0 0:0 32 0] [1] 0 0
r 1.000257102 _1_ RTR  --- 1 cbr 1000 [0 0 0 0] ------- [1:0 0:0 32 0] [1] 0 0
r 1.000737261 _1_ RTR  --- 0 AODV 44 [31 1 0 800] ------- [0:255 1:255 30 1] [0x4 1 [0 4] 10.000000] (REPLY)
s 1.000737261 _1_ RTR  --- 0 cbr 1020 [0 0 0 0] ------- [1:0 0:0 30 0] [0] 0 0
s 1.000915340 _1_ AGT  --- 2 cbr 1000 [0 0 0 0] ------- [1:0 0:0 32 0] [2] 0 0
r 1.000915340 _1_ RTR  --- 2 cbr 1000 [0 0 0 0] ------- [1:0 0:0 32 0] [2] 0 0
s 1.000915340 _1_ RTR  --- 2 cbr 1020 [0 0 0 0] ------- [1:0 0:0 30 0] [2] 0 0
r 1.001054623 _0_ AGT  --- 0 cbr 1020 [31 0 1 800] ------- [1:0 0:0 30 0] [0] 1 0
r 1.001370864 _0_ AGT  --- 2 cbr 1020 [31 0 1 800] ------- [1:0 0:0 30 0] [2] 1 0
s 1.001485374 _1_ AGT  --- 3 cbr 1000 [0 0 0 0] ------- [1:0 0:0 32 0] [3] 0 0
r 1.001485374 _1_ RTR  --- 3 cbr 1000 [0 0 0 0] ------- [1:0 0:0 32 0] [3] 0 0
s 1.001485374 _1_ RTR  --- 3 cbr 1020 [0 0 0 0] ------- [1:0 0:0 30 0] [3] 0 0
r 1.001865736 _0_ AGT  --- 3 cbr 1020 [31 0 1 800] ------- [1:0 0:0 30 0] [3] 1 0
s 1.001947203 _1_ AGT  --- 4 cbr 1000 [0 0 0 0] ------- [1:0 0:0 32 0] [4] 0 0
r 1.001947203 _1_ RTR  --- 4 cbr 1000 [0 0 0 0] ------- [1:0 0:0 32 0] [4] 0 0
s 1.001947203 _1_ RTR  --- 4 cbr 1020 [0 0 0 0] ------- [1:0 0:0 30 0] [4] 0 0
r 1.002327564 _0_ AGT  --- 4 cbr 1020 [31 0 1 800] ------- [1:0 0:0 30 0] [4] 1 0
s 1.002600717 _1_ AGT  --- 5 cbr 1000 [0 0 0 0] ------- [1:0 0:0 32 0] [5] 0 0
r 1.002600717 _1_ RTR  --- 5 cbr 1000 [0 0 0 0] ------- [1:0 0:0 32 0] [5] 0 0
s 1.002600717 _1_ RTR  --- 5 cbr 1020 [0 0 0 0] ------- [1:0 0:0 30 0] [5] 0 0
r 1.002945078 _0_ AGT  --- 5 cbr 1020 [31 0 1 800] ------- [1:0 0:0 30 0] [5] 1 0
s 1.003055060 _1_ AGT  --- 6 cbr 1000 [0 0 0 0] ------- [1:0 0:0 32 0] [6] 0 0
r 1.003055060 _1_ RTR  --- 6 cbr 1000 [0 0 0 0] ------- [1:0 0:0 32 0] [6] 0 0
s 1.003055060 _1_ RTR  --- 6 cbr 1020 [0 0 0 0] ------- [1:0 0:0 30 0] [6] 0 0
r 1.003297320 _0_ AGT  --- 6 cbr 1020 [31 0 1 800] ------- [1:0 0:0 30 0] [6] 1 0
s 1.003651213 _1_ AGT  --- 7 cbr 1000 [0 0 0 0] ------- [1:0 0:0 32 0] [7] 0 0
r 1.003651213 _1_ RTR  --- 7 cbr 1000 [0 0 0 0] ------- [1:0 0:0 32 0] [7] 0 0
s 1.003651213 _1_ RTR  --- 7 cbr 1020 [0 0 0 0] ------- [1:0 0:0 30 0] [7] 0 0
r 1.003932575 _0_ AGT  --- 7 cbr 1020 [31 0 1 800] ------- [1:0 0:0 30 0] [7] 1 0
s 1.004321126 _1_ AGT  --- 8 cbr 1000 [0 0 0 0] ------- [1:0 0:0 32 0] [8] 0 0
r 1.004321126 _1_ RTR  --- 8 cbr 1000 [0 0 0 0] ------- [1:0 0:0 32 0] [8] 0 0
s 1.004321126 _1_ RTR  --- 8 cbr 1020 [0 0 0 0] ------- [1:0 0:0 30 0] [8] 0 0
r 1.004701487 _0_ AGT  --- 8 cbr 1020 [31 0 1 800] ------- [1:0 0:0 30 0] [8] 1 0
s 1.004996679 _1_ AGT  --- 9 cbr 1000 [0 0 0 0] ------- [1:0 0:0 32 0] [9] 0 0
r 1.004996679 _1_ RTR  --- 9 cbr 1000 [0 0 0 0] ------- [1:0 0:0 32 0] [9] 0 0
s 1.004996679 _1_ RTR  --- 9 cbr 1020 [0 0 0 0] ------- [1:0 0:0 30 0] [9] 0 0
r 1.005314041 _0_ AGT  --- 9 cbr 1020 [31 0 1 800] ------- [1:0 0:0 30 0] [9] 1 0
s 1.005699152 _1_ AGT  --- 10 cbr 1000 [0 0 0 0] ------- [1:0 0:0 32 0] [10] 0 0
r 1.005699152 _1_ RTR  --- 10 cbr 1000 [0 0 0 0] ------- [1:0 0:0 32 0] [10] 0 0
s 1.005699152 _1_ RTR  --- 10 cbr 1020 [0 0 0 0] ------- [1:0 0:0 30 0] [10] 0 0
r 1.006061513 _0_ AGT  --- 10 cbr 1020 [31 0 1 800] ------- [1:0 0:0 30 0] [10] 1 0
s 1.006151255 _1_ AGT  --- 11 cbr 1000 [0 0 0 0] ------- [1:0 0:0 32 0] [11] 0 0
r 1.006151255 _1_ RTR  --- 11 cbr 1000 [0 0 0 0] ------- [1:0 0:0 32 0] [11] 0 0
s 1.006151255 _1_ RTR  --- 11 cbr 1020 [0 0 0 0] ------- [1:0 0:0 30 0] [11] 0 0
r 1.006431755 _0_ AGT  --- 11 cbr 1020 [31 0 1 800] ------- [1:0 0:0 30 0] [11] 1 0
s 1.006874388 _1_ AGT  --- 12 cbr 1000 [0 0 0 0] ------- [1:0 0:0 32 0] [12] 0 0
r 1.006874388 _1_ RTR  --- 12 cbr 1000 [0 0 0 0] ------- [1:0 0:0 32 0] [12] 0 0
s 1.006874388 _1_ RTR  --- 12 cbr 1020 [0 0 0 0] ------- [1:0 0:0 30 0] [12] 0 0
s 1.007180404 _1_ AGT  --- 13 cbr 1000 [0 0 0 0] ------- [1:0 0:0 32 0] [13] 0 0
r 1.007180404 _1_ RTR  --- 13 cbr 1000 [0 0 0 0] ------- [1:0 0:0 32 0] [13] 0 0
s 1.007180404 _1_ RTR  --- 13 cbr 1020 [0 0 0 0] ------- [1:0 0:0 30 0] [13] 0 0
r 1.007236750 _0_ AGT  --- 12 cbr 1020 [31 0 1 800] ------- [1:0 0:0 30 0] [12] 1 0
s 1.007435808 _1_ AGT  --- 14 cbr 1000 [0 0 0 0] ------- [1:0 0:0 32 0] [14] 0 0
r 1.007435808 _1_ RTR  --- 14 cbr 1000 [0 0 0 0] ------- [1:0 0:0 32 0] [14] 0 0
s 1.007435808 _1_ RTR  --- 14 cbr 1020 [0 0 0 0] ------- [1:0 0:0 30 0] [14] 0 0
r 1.007489991 _0_ AGT  --- 13 cbr 1020 [31 0 1 800] ------- [1:0 0:0 30 0] [13] 1 0
s 1.007853639 _1_ AGT  --- 15 cbr 1000 [0 0 0 0] ------- [1:0 0:0 32 0] [15] 0 0
r 1.007853639 _1_ RTR  --- 15 cbr 1000 [0 0 0 0] ------- [1:0 0:0 32 0] [15] 0 0
s 1.007853639 _1_ RTR  --- 15 cbr 1020 [0 0 0 0] ------- [1:0 0:0 30 0] [15] 0 0
r 1.007869233 _0_ AGT  --- 14 cbr 1020 [31 0 1 800] ------- [1:0 0:0 30 0] [14] 1 0
s 1.008199155 _2_ RTR  --- 0 AODV 48 [0 ffffffff 1 800] ------- [2:255 -1:255 29 0] [0x2 2 1 [0 0] [1 4]] (REQUEST)
r 1.008230475 _0_ AGT  --- 15 cbr 1020 [31 0 1 800] ------- [1:0 0:0 30 0] [15] 1 0
s 1.008437951 _1_ AGT  --- 16 cbr 1000 [0 0 0 0] ------- [1:0 0:0 32 0] [16] 0 0
r 1.008437951 _1_ RTR  --- 16 cbr 1000 [0 0 0 0] ------- [1:0 0:0 32 0] [16] 0 0
s 1.008437951 _1_ RTR  --- 16 cbr 1020 [0 0 0 0] ------- [1:0 0:0 30 0] [16] 0 0
r 1.008473075 _0_ RTR  --- 0 AODV 48 [0 ffffffff 2 800] ------- [2:255 -1:255 29 0] [0x2 2 1 [0 0] [1 4]] (REQUEST)
r 1.008473128 _1_ RTR  --- 0 AODV 48 [0 ffffffff 2 800] ------- [2:255 -1:255 29 0] [0x2 2 1 [0 0] [1 4]] (REQUEST)
r 1.008791313 _0_ AGT  --- 16 cbr 1020 [31 0 1 800] ------- [1:0 0:0 30 0] [16] 1 0
s 1.009126279 _1_ AGT  --- 17 cbr 1000 [0 0 0 0] ------- [1:0 0:0 32 0] [17] 0 0
r 1.009126279 _1_ RTR  --- 17 cbr 1000 [0 0 0 0] ------- [1:0 0:0 32 0] [17] 0 0
s 1.009126279 _1_ RTR  --- 17 cbr 1020 [0 0 0 0] ------- [1:0 0:0 30 0] [17] 0 0
s 1.009390058 _1_ AGT  --- 18 cbr 1000 [0 0 0 0] ------- [1:0 0:0 32 0] [18] 0 0
r 1.009390058 _1_ RTR  --- 18 cbr 1000 [0 0 0 0] ------- [1:0 0:0 32 0] [18] 0 0
s 1.009390058 _1_ RTR  --- 18 cbr 1020 [0 0 0 0] ------- [1:0 0:0 30 0] [18] 0 0
r 1.009497641 _0_ AGT  --- 17 cbr 1020 [31 0 1 800] ------- [1:0 0:0 30 0] [17] 1 0
s 1.009733165 _1_ AGT  --- 19 cbr 1000 [0 0 0 0] ------- [1:0 0:0 32 0] [19] 0 0
r 1.009733165 _1_ RTR  --- 19 cbr 1000 [0 0 0 0] ------- [1:0 0:0 32 0] [19] 0 0
s 1.009733165 _1_ RTR  --- 19 cbr 1020 [0 0 0 0] ------- [1:0 0:0 30 0] [19] 0 0
r 1.009759882 _0_ AGT  --- 18 cbr 1020 [31 0 1 800] ------- [1:0 0:0 30 0] [18] 1 0
r 1.010103124 _0_ AGT  --- 19 cbr 1020 [31 0 1 800] ------- [1:0 0:0 30 0] [19] 1 0
s 1.010456573 _1_ AGT  --- 20 cbr 1000 [0 0 0 0] ------- [1:0 0:0 32 0] [20] 0 0
r 1.010456573 _1_ RTR  --- 20 cbr 1000 [0 0 0 0] ------- [1:0 0:0 32 0] [20] 0 0
s 1.010456573 _1_ RTR  --- 20 cbr 1020 [0 0 0 0] ------- [1:0 0:0 30 0] [20] 0 0
s 1.010737261 _1_ RTR  --- 1 cbr 1020 [0 0 0 0] ------- [1:0 0:0 30 0] [1] 0 0
r 1.010800934 _0_ AGT  --- 20 cbr 1020 [31 0 1 800] ------- [1:0 0:0 30 0] [20] 1 0
s 1.011054042 _1_ AGT  --- 21 cbr 1000 [0 0 0 0] ------- [1:0 0:0 32 0] [21] 0 0
r 1.011054042 _1_ RTR  --- 21 cbr 1000 [0 0 0 0] ------- [1:0 0:0 32 0] [21] 0 0
s 1.011054042 _1_ RTR  --- 21 cbr 1020 [0 0 0 0] ------- [1:0 0:0 30 0] [21] 0 0
r 1.011171176 _0_ AGT  --- 1 cbr 1020 [31 0 1 800] ------- [1:0 0:0 30 0] [1] 1 0
s 1.011349720 _1_ AGT  --- 22 cbr 1000 [0 0 0 0] ------- [1:0 0:0 32 0] [22] 0 0
r 1.011349720 _1_ RTR  --- 22 cbr 1000 [0 0 0 0] ------- [1:0 0:0 32 0] [22] 0 0
s 1.011349720 _1_ RTR  --- 22 cbr 1020 [0 0 0 0] ------- [1:0 0:0 30 0] [22] 0 0
r 1.011442418 _0_ AGT  --- 21 cbr 1020 [31 0 1 800] ------- [1:0 0:0 30 0] [21] 1 0
s 1.011624787 _1_ AGT  --- 23 cbr 1000 [0 0 0 0] ------- [1:0 0:0 32 0] [23] 0 0
r 1.011624787 _1_ RTR  --- 23 cbr 1000 [0 0 0 0] ------- [1:0 0:0 32 0] [23] 0 0
s 1.011624787 _1_ RTR  --- 23 cbr 1020 [0 0 0 0] ------- [1:0 0:0 30 0] [23] 0 0
r 1.011821660 _0_ AGT  --- 22 cbr 1020 [31 0 1 800] ------- [1:0 0:0 30 0] [22] 1 0
s 1.012141236 _1_ AGT  --- 24 cbr 1000 [0 0 0 0] ------- [1:0 0:0 32 0] [24] 0 0
r 1.012141236 _1_ RTR  --- 24 cbr 1000 [0 0 0 0] ------- [1:0 0:0 32 0] [24] 0 0
s 1.012141236 _1_ RTR  --- 24 cbr 1020 [0 0 0 0] ------- [1:0 0:0 30 0] [24] 0 0
r 1.012182901 _0_ AGT  --- 23 cbr 1020 [31 0 1 800] ------- [1:0 0:0 30 0] [23] 1 0
r 1.012526143 _0_ AGT  --- 24 cbr 1020 [31 0 1 800] ------- [1:0 0:0 30 0] [24] 1 0
s 1.012601846 _1_ AGT  --- 25 cbr 1000 [0 0 0 0] ------- [1:0 0:0 32 0] [25] 0 0
r 1.012601846 _1_ RTR  --- 25 cbr 1000 [0 0 0 0] ------- [1:0 0:0 32 0] [25] 0 0
s 1.012601846 _1_ RTR  --- 25 cbr 1020 [0 0 0 0] ------- [1:0 0:0 30 0] [25] 0 0
r 1.012860385 _0_ AGT  --- 25 cbr 1020 [31 0 1 800] ------- [1:0 0:0 30 0] [25] 1 0
s 1.013303270 _1_ AGT  --- 26 cbr 1000 [0 0 0 0] ------- [1:0 0:0 32 0] [26] 0 0
r 1.013303270 _1_ RTR  --- 26 cbr 1000 [0 0 0 0] ------- [1:0 0:0 32 0] [26] 0 0
s 1.013303270 _1_ RTR  --- 26 cbr 1020 [0 0 0 0] ------- [1:0 0:0 30 0] [26] 0 0
r 1.013566631 _0_ AGT  --- 26 cbr 1020 [31 0 1 800] ------- [1:0 0:0 30 0] [26] 1 0
s 1.013990593 _1_ AGT  --- 27 cbr 1000 [0 0 0 0] ------- [1:0 0:0 32 0] [27] 0 0
r 1.013990593 _1_ RTR  --- 27 cbr 1000 [0 0 0 0] ------- [1:0 0:0 32 0] [27] 0 0
s 1.013990593 _1_ RTR  --- 27 cbr 1020 [0 0 0 0] ------- [1:0 0:0 30 0] [27] 0 0
r 1.014370955 _0_ AGT  --- 27 cbr 1020 [31 0 1 800] ------- [1:0 0:0 30 0] [27] 1 0
s 1.014641599 _1_ AGT  --- 28 cbr 1000 [0 0 0 0] ------- [1:0 0:0 32 0] [28] 0 0
r 1.014641599 _1_ RTR  --- 28 cbr 1000 [0 0 0 0] ------- [1:0 0:0 32 0] [28] 0 0
s 1.014641599 _1_ RTR  --- 28 cbr 1020 [0 0 0 0] ------- [1:0 0:0 30 0] [28] 0 0
r 1.014958960 _0_ AGT  --- 28 cbr 1020 [31 0 1 800] ------- [1:0 0:0 30 0] [28] 1 0
s 1.015299390 _1_ AGT  --- 29 cbr 1000 [0 0 0 0] ------- [1:0 0:0 32 0] [29] 0 0
r 1.015299390 _1_ RTR  --- 29 cbr 1000 [0 0 0 0] ------- [1:0 0:0 32 0] [29] 0 0
s 1.015299390 _1_ RTR  --- 29 cbr 1020 [0 0 0 0] ------- [1:0 0:0 30 0] [29] 0 0
s 1.015624384 _1_ AGT  --- 30 cbr 1000 [0 0 0 0] ------- [1:0 0:0 32 0] [30] 0 0
r 1.015624384 _1_ RTR  --- 30 cbr 1000 [0 0 0 0] ------- [1:0 0:0 32 0] [30] 0 0
s 1.015624384 _1_ RTR  --- 30 cbr 1020 [0 0 0 0] ------- [1:0 0:0 30 0] [30] 0 0
r 1.015643752 _0_ AGT  --- 29 cbr 1020 [31 0 1 800] ------- [1:0 0:0 30 0] [29] 1 0
r 1.015896993 _0_ AGT  --- 30 cbr 1020 [31 0 1 800] ------- [1:0 0:0 30 0] [30] 1 0
s 1.016147446 _1_ AGT  --- 31 cbr 1000 [0 0 0 0] ------- [1:0 0:0 32 0] [31] 0 0
r 1.016147446 _1_ RTR  --- 31 cbr 1000 [0 0 0 0] ------- [1:0 0:0 32 0] [31] 0 0
s 1.016147446 _1_ RTR  --- 31 cbr 1020 [0 0 0 0] ------- [1:0 0:0 30 0] [31] 0 0
r 1.016401807 _0_ AGT  --- 31 cbr 1020 [31 0 1 800] ------- [1:0 0:0 30 0] [31] 1 0
s 1.016439161 _1_ AGT  --- 32 cbr 1000 [0 0 0 0] ------- [1:0 0:0 32 0] [32] 0 0
r 1.016439161 _1_ RTR  --- 32 cbr 1000 [0 0 0 0] ------- [1:0 0:0 32 0] [32] 0 0
s 1.016439161 _1_ RTR  --- 32 cbr 1020 [0 0 0 0] ------- [1:0 0:0 30 0] [32] 0 0
r 1.016747522 _0_ AGT  --- 32 cbr 1020 [31 0 1 800] ------- [1:0 0:0 30 0] [32] 1 0
s 1.017145130 _1_ AGT  --- 33 cbr 1000 [0 0 0 0] ------- [1:0 0:0 32 0] [33] 0 0
r 1.017145130 _1_ RTR  --- 33 cbr 1000 [0 0 0 0] ------- [1:0 0:0 32 0] [33] 0 0
s 1.017145130 _1_ RTR  --- 33 cbr 1020 [0 0 0 0] ------- [1:0 0:0 30 0] [33] 0 0
r 1.017408492 _0_ AGT  --- 33 cbr 1020 [31 0 1 800] ------- [1:0 0:0 30 0] [33] 1 0
s 1.017547625 _1_ AGT  --- 34 cbr 1000 [0 0 0 0] ------- [1:0 0:0 32 0] [34] 0 0
r 1.017547625 _1_ RTR  --- 34 cbr 1000 [0 0 0 0] ------- [1:0 0:0 32 0] [34] 0 0
s 1.017547625 _1_ RTR  --- 34 cbr 1020 [0 0 0 0] ------- [1:0 0:0 30 0] [34] 0 0
r 1.017810986 _0_ AGT  --- 34 cbr 1020 [31 0 1 800] ------- [1:0 0:0 30 0] [34] 1 0
s 1.018238254 _1_ AGT  --- 35 cbr 1000 [0 0 0 0] ------- [1:0 0:0 32 0] [35] 0 0
r 1.018238254 _1_ RTR  --- 35 cbr 1000 [0 0 0 0] ------- [1:0 0:0 32 0] [35] 0 0
s 1.018238254 _1_ RTR  --- 35 cbr 1020 [0 0 0 0] ------- [1:0 0:0 30 0] [35] 0 0
s 1.018573863 _1_ AGT  --- 36 cbr 1000 [0 0 0 0] ------- [1:0 0:0 32 0] [36] 0 0
r 1.018573863 _1_ RTR  --- 36 cbr 1000 [0 0 0 0] ------- [1:0 0:0 32 0] [36] 0 0
s 1.018573863 _1_ RTR  --- 36 cbr 1020 [0 0 0 0] ------- [1:0 0:0 30 0] [36] 0 0
r 1.018618615 _0_ AGT  --- 35 cbr 1020 [31 0 1 800] ------- [1:0 0:0 30 0] [35] 1 0
r 1.018979857 _0_ AGT  --- 36 cbr 1020 [31 0 1 800] ------- [1:0 0:0 30 0] [36] 1 0
s 1.019201481 _1_ AGT  --- 37 cbr 1000 [0 0 0 0] ------- [1:0 0:0 32 0] [37] 0 0
r 1.019201481 _1_ RTR  --- 37 cbr 1000 [0 0 0 0] ------- [1:0 0:0 32 0] [37] 0 0
s 1.019201481 _1_ RTR  --- 37 cbr 1020 [0 0 0 0] ------- [1:0 0:0 30 0] [37] 0 0
r 1.019455842 _0_ AGT  --- 37 cbr 1020 [31 0 1 800] ------- [1:0 0:0 30 0] [37] 1 0
s 1.019711854 _1_ AGT  --- 38 cbr 1000 [0 0 0 0] ------- [1:0 0:0 32 0] [38] 0 0
r 1.019711854 _1_ RTR  --- 38 cbr 1000 [0 0 0 0] ------- [1:0 0:0 32 0] [38] 0 0
s 1.019711854 _1_ RTR  --- 38 cbr 1020 [0 0 0 0] ------- [1:0 0:0 30 0] [38] 0 0
s 1.019969853 _1_ AGT  --- 39 cbr 1000 [0 0 0 0] ------- [1:0 0:0 32 0] [39] 0 0
r 1.019969853 _1_ RTR  --- 39 cbr 1000 [0 0 0 0] ------- [1:0 0:0 32 0] [39] 0 0
s 1.019969853 _1_ RTR  --- 39 cbr 1020 [0 0 0 0] ------- [1:0 0:0 30 0] [39] 0 0
r 1.020092216 _0_ AGT  --- 38 cbr 1020 [31 0 1 800] ------- [1:0 0:0 30 0] [38] 1 0
r 1.020399458 _0_ AGT  --- 39 cbr 1020 [31 0 1 800] ------- [1:0 0:0 30 0] [39] 1 0
s 1.020438464 _1_ AGT  --- 40 cbr 1000 [0 0 0 0] ------- [1:0 0:0 32 0] [40] 0 0
r 1.020438464 _1_ RTR  --- 40 cbr 1000 [0 0 0 0] ------- [1:0 0:0 32 0] [40] 0 0
s 1.020438464 _1_ RTR  --- 40 cbr 1020 [0 0 0 0] ------- [1:0 0:0 30 0] [40] 0 0
r 1.020670699 _0_ AGT  --- 40 cbr 1020 [31 0 1 800] ------- [1:0 0:0 30 0] [40] 1 0
s 1.021138171 _1_ AGT  --- 41 cbr 1000 [0 0 0 0] ------- [1:0 0:0 32 0] [41] 0 0
r 1.021138171 _1_ RTR  --- 41 cbr 1000 [0 0 0 0] ------- [1:0 0:0 32 0] [41] 0 0
s 1.021138171 _1_ RTR  --- 41 cbr 1020 [0 0 0 0] ------- [1:0 0:0 30 0] [41] 0 0
r 1.021419533 _0_ AGT  --- 41 cbr 1020 [31 0 1 800] ------- [1:0 0:0 30 0] [41] 1 0
s 1.021603374 _1_ AGT  --- 42 cbr 1000 [0 0 0 0] ------- [1:0 0:0 32 0] [42] 0 0
r 1.021603374 _1_ RTR  --- 42 cbr 1000 [0 0 0 0] ------- [1:0 0:0 32 0] [42] 0 0
s 1.021603374 _1_ RTR  --- 42 cbr 1020 [0 0 0 0] ------- [1:0 0:0 30 0] [42] 0 0
r 1.021947735 _0_ AGT  --- 42 cbr 1020 [31 0 1 800] ------- [1:0 0:0 30 0] [42] 1 0
s 1.022221200 _1_ AGT  --- 43 cbr 1000 [0 0 0 0] ------- [1:0 0:0 32 0] [43] 0 0
r 1.022221200 _1_ RTR  --- 43 cbr 1000 [0 0 0 0] ------- [1:0 0:0 32 0] [43] 0 0
s 1.022221200 _1_ RTR  --- 43 cbr 1020 [0 0 0 0] ------- [1:0 0:0 30 0] [43] 0 0
r 1.022601562 _0_ AGT  --- 43 cbr 1020 [31 0 1 800] ------- [1:0 0:0 30 0] [43] 1 0
s 1.022782645 _1_ AGT  --- 44 cbr 1000 [0 0 0 0] ------- [1:0 0:0 32 0] [44] 0 0
r 1.022782645 _1_ RTR  --- 44 cbr 1000 [0 0 0 0] ------- [1:0 0:0 32 0] [44] 0 0
s 1.022782645 _1_ RTR  --- 44 cbr 1020 [0 0 0 0] ------- [1:0 0:0 30 0] [44] 0 0
r 1.023127007 _0_ AGT  --- 44 cbr 1020 [31 0 1 800] ------- [1:0 0:0 30 0] [44] 1 0
s 1.023150416 _1_ AGT  --- 45 cbr 1000 [0 0 0 0] ------- [1:0 0:0 32 0] [45] 0 0
r 1.023150416 _1_ RTR  --- 45 cbr 1000 [0 0 0 0] ------- [1:0 0:0 32 0] [45] 0 0
s 1.023150416 _1_ RTR  --- 45 cbr 1020 [0 0 0 0] ------- [1:0 0:0 30 0] [45] 0 0
r 1.023389249 _0_ AGT  --- 45 cbr 1020 [31 0 1 800] ------- [1:0 0:0 30 0] [45] 1 0
s 1.023488758 _1_ AGT  --- 46 cbr 1000 [0 0 0 0] ------- [1:0 0:0 32 0] [46] 0 0
r 1.023488758 _1_ RTR  --- 46 cbr 1000 [0 0 0 0] ------- [1:0 0:0 32 0] [46] 0 0
s 1.023488758 _1_ RTR  --- 46 cbr 1020 [0 0 0 0] ------- [1:0 0:0 30 0] [46] 0 0
r 1.023869120 _0_ AGT  --- 46 cbr 1020 [31 0 1 800] ------- [1:0 0:0 30 0] [46] 1 0
s 1.024028009 _1_ AGT  --- 47 cbr 1000 [0 0 0 0] ------- [1:0 0:0 32 0] [47] 0 0
r 1.024028009 _1_ RTR  --- 47 cbr 1000 [0 0 0 0] ------- [1:0 0:0 32 0] [47] 0 0
s 1.024028009 _1_ RTR  --- 47 cbr 1020 [0 0 0 0] ------- [1:0 0:0 30 0] [47] 0 0
r 1.024309370 _0_ AGT  --- 47 cbr 1020 [31 0 1 800] ------- [1:0 0:0 30 0] [47] 1 0
s 1.024693129 _1_ AGT  --- 48 cbr 1000 [0 0 0 0] ------- [1:0 0:0 32 0] [48] 0 0
r 1.024693129 _1_ RTR  --- 48 cbr 1000 [0 0 0 0] ------- [1:0 0:0 32 0] [48] 0 0
s 1.024693129 _1_ RTR  --- 48 cbr 1020 [0 0 0 0] ------- [1:0 0:0 30 0] [48] 0 0
r 1.024974491 _0_ AGT  --- 48 cbr 1020 [31 0 1 800] ------- [1:0 0:0 30 0] [48] 1 0
s 1.025340148 _1_ AGT  --- 49 cbr 1000 [0 0 0 0] ------- [1:0 0:0 32 0] [49] 0 0
r 1.025340148 _1_ RTR  --- 49 cbr 1000 [0 0 0 0] ------- [1:0 0:0 32 0] [49] 0 0
s 1.025340148 _1_ RTR  --- 49 cbr 1020 [0 0 0 0] ------- [1:0 0:0 30 0] [49] 0 0
r 1.025603510 _0_ AGT  --- 49 cbr 1020 [31 0 1 800] ------- [1:0 0:0 30 0] [49] 1 0
s 1.025704637 _1_ AGT  --- 50 cbr 1000 [0 0 0 0] ------- [1:0 0:0 32 0] [50] 0 0
r 1.025704637 _1_ RTR  --- 50 cbr 1000 [0 0 0 0] ------- [1:0 0:0 32 0] [50] 0 0
s 1.025704637 _1_ RTR  --- 50 cbr 1020 [0 0 0 0] ------- [1:0 0:0 30 0] [50] 0 0
r 1.026048998 _0_ AGT  --- 50 cbr 1020 [31 0 1 800] ------- [1:0 0:0 30 0] [50] 1 0
s 1.026184624 _1_ AGT  --- 51 cbr 1000 [0 0 0 0] ------- [1:0 0:0 32 0] [51] 0 0
r 1.026184624 _1_ RTR  --- 51 cbr 1000 [0 0 0 0] ------- [1:0 0:0 32 0] [51] 0 0
s 1.026184624 _1_ RTR  --- 51 cbr 1020 [0 0 0 0] ------- [1:0 0:0 30 0] [51] 0 0
r 1.026447985 _0_ AGT  --- 51 cbr 1020 [31 0 1 800] ------- [1:0 0:0 30 0] [51] 1 0
s 1.026887477 _1_ AGT  --- 52 cbr 1000 [0 0 0 0] ------- [1:0 0:0 32 0] [52] 0 0
r 1.026887477 _1_ RTR  --- 52 cbr 1000 [0 0 0 0] ------- [1:0 0:0 32 0] [52] 0 0
s 1.026887477 _1_ RTR  --- 52 cbr 1020 [0 0 0 0] ------- [1:0 0:0 30 0] [52] 0 0
r 1.027186839 _0_ AGT  --- 52 cbr 1020 [31 0 1 800] ------- [1:0 0:0 30 0] [52] 1 0
s 1.027407593 _1_ AGT  --- 53 cbr 1000 [0 0 0 0] ------- [1:0 0:0 32 0] [53] 0 0
r 1.027407593 _1_ RTR  --- 53 cbr 1000 [0 0 0 0] ------- [1:0 0:0 32 0] [53] 0 0
s 1.027407593 _1_ RTR  --- 53 cbr 1020 [0 0 0 0] ------- [1:0 0:0 30 0] [53] 0 0
r 1.027715955 _0_ AGT  --- 53 cbr 1020 [31 0 1 800] ------- [1:0 0:0 30 0] [53] 1 0
s 1.028143508 _1_ AGT  --- 54 cbr 1000 [0 0 0 0] ------- [1:0 0:0 32 0] [54] 0 0
r 1.028143508 _1_ RTR  --- 54 cbr 1000 [0 0 0 0] ------- [1:0 0:0 32 0] [54] 0 0
s 1.028143508 _1_ RTR  --- 54 cbr 1020 [0 0 0 0] ------- [1:0 0:0 30 0] [54] 0 0
r 1.028469870 _0_ AGT  --- 54 cbr 1020 [31 0 1 800] ------- [1:0 0:0 30 0] [54] 1 0
s 1.028758402 _1_ AGT  --- 55 cbr 1000 [0 0 0 0] ------- [1:0 0:0 32 0] [55] 0 0
r 1.028758402 _1_ RTR  --- 55 cbr 1000 [0 0 0 0] ------- [1:0 0:0 32 0] [55] 0 0
s 1.028758402 _1_ RTR  --- 55 cbr 1020 [0 0 0 0] ------- [1:0 0:0 30 0] [55] 0 0
r 1.029120764 _0_ AGT  --- 55 cbr 1020 [31 0 1 800] ------- [1:0 0:0 30 0] [55] 1 0
s 1.029383249 _1_ AGT  --- 56 cbr 1000 [0 0 0 0] ------- [1:0 0:0 32 0] [56] 0 0
r 1.029383249 _1_ RTR  --- 56 cbr 1000 [0 0 0 0] ------- [1:0 0:0 32 0] [56] 0 0
s 1.029383249 _1_ RTR  --- 56 cbr 1020 [0 0 0 0] ------- [1:0 0:0 30 0] [56] 0 0
r 1.029637610 _0_ AGT  --- 56 cbr 1020 [31 0 1 800] ------- [1:0 0:0 30 0] [56] 1 0
s 1.029961877 _1_ AGT  --- 57 cbr 1000 [0 0 0 0] ------- [1:0 0:0 32 0] [57] 0 0
r 1.029961877 _1_ RTR  --- 57 cbr 1000 [0 0 0 0] ------- [1:0 0:0 32 0] [57] 0 0
s 1.029961877 _1_ RTR  --- 57 cbr 1020 [0 0 0 0] ------- [1:0 0:0 30 0] [57] 0 0
r 1.030252239 _0_ AGT  --- 57 cbr 1020 [31 0 1 800] ------- [1:0 0:0 30 0] [57] 1 0
s 1.030401196 _1_ AGT  --- 58 cbr 1000 [0 0 0 0] ------- [1:0 0:0 32 0] [58] 0 0
r 1.030401196 _1_ RTR  --- 58 cbr 1000 [0 0 0 0] ------- [1:0 0:0 32 0] [58] 0 0
s 1.030401196 _1_ RTR  --- 58 cbr 1020 [0 0 0 0] ------- [1:0 0:0 30 0] [58] 0 0
r 1.030664557 _0_ AGT  --- 58 cbr 1020 [31 0 1 800] ------- [1:0 0:0 30 0] [58] 1 0
s 1.031078473 _1_ AGT  --- 59 cbr 1000 [0 0 0 0] ------- [1:0 0:0 32 0] [59] 0 0
r 1.031078473 _1_ RTR  --- 59 cbr 1000 [0 0 0 0] ------- [1:0 0:0 32 0] [59] 0 0
s 1.031078473 _1_ RTR  --- 59 cbr 1020 [0 0 0 0] ------- [1:0 0:0 30 0] [59] 0 0
r 1.031359835 _0_ AGT  --- 59 cbr 1020 [31 0 1 800] ------- [1:0 0:0 30 0] [59] 1 0
s 1.031424925 _1_ AGT  --- 60 cbr 1000 [0 0 0 0] ------- [1:0 0:0 32 0] [60] 0 0
r 1.031424925 _1_ RTR  --- 60 cbr 1000 [0 0 0 0] ------- [1:0 0:0 32 0] [60] 0 0
s 1.031424925 _1_ RTR  --- 60 cbr 1020 [0 0 0 0] ------- [1:0 0:0 30 0] [60] 0 0
r 1.031712077 _0_ AGT  --- 60 cbr 1020 [31 0 1 800] ------- [1:0 0:0 30 0] [60] 1 0
s 1.031734633 _1_ AGT  --- 61 cbr 1000 [0 0 0 0] ------- [1:0 0:0 32 0] [61] 0 0
r 1.031734633 _1_ RTR  --- 61 cbr 1000 [0 0 0 0] ------- [1:0 0:0 32 0] [61] 0 0
s 1.031734633 _1_ RTR  --- 61 cbr 1020 [0 0 0 0] ------- [1:0 0:0 30 0] [61] 0 0
s 1.032011591 _1_ AGT  --- 62 cbr 1000 [0 0 0 0] ------- [1:0 0:0 32 0] [62] 0 0
r 1.032011591 _1_ RTR  --- 62 cbr 1000 [0 0 0 0] ------- [1:0 0:0 32 0] [62] 0 0
s 1.032011591 _1_ RTR  --- 62 cbr 1020 [0 0 0 0] ------- [1:0 0:0 30 0] [62] 0 0
r 1.032028318 _0_ AGT  --- 61 cbr 1020 [31 0 1 800] ------- [1:0 0:0 30 0] [61] 1 0
r 1.032308560 _0_ AGT  --- 62 cbr 1020 [31 0 1 800] ------- [1:0 0:0 30 0] [62] 1 0
s 1.032368760 _1_ AGT  --- 63 cbr 1000 [0 0 0 0] ------- [1:0 0:0 32 0] [63] 0 0
r 1.032368760 _1_ RTR  --- 63 cbr 1000 [0 0 0 0] ------- [1:0 0:0 32 0] [63] 0 0
s 1.032368760 _1_ RTR  --- 63 cbr 1020 [0 0 0 0] ------- [1:0 0:0 30 0] [63] 0 0
r 1.032606802 _0_ AGT  --- 63 cbr 1020 [31 0 1 800] ------- [1:0 0:0 30 0] [63] 1 0
s 1.033029866 _1_ AGT  --- 64 cbr 1000 [0 0 0 0] ------- [1:0 0:0 32 0] [64] 0 0
r 1.033029866 _1_ RTR  --- 64 cbr 1000 [0 0 0 0] ------- [1:0 0:0 32 0] [64] 0 0
s 1.033029866 _1_ RTR  --- 64 cbr 1020 [0 0 0 0] ------- [1:0 0:0 30 0] [64] 0 0
r 1.033356227 _0_ AGT  --- 64 cbr 1020 [31 0 1 800] ------- [1:0 0:0 30 0] [64] 1 0
s 1.033495046 _1_ AGT  --- 65 cbr 1000 [0 0 0 0] ------- [1:0 0:0 32 0] [65] 0 0
r 1.033495046 _1_ RTR  --- 65 cbr 1000 [0 0 0 0] ------- [1:0 0:0 32 0] [65] 0 0
s 1.033495046 _1_ RTR  --- 65 cbr 1020 [0 0 0 0] ------- [1:0 0:0 30 0] [65] 0 0
r 1.033803408 _0_ AGT  --- 65 cbr 1020 [31 0 1 800] ------- [1:0 0:0 30 0] [65] 1 0
s 1.034016782 _1_ AGT  --- 66 cbr 1000 [0 0 0 0] ------- [1:0 0:0 32 0] [66] 0 0
r 1.034016782 _1_ RTR  --- 66 cbr 1000 [0 0 0 0] ------- [1:0 0:0 32 0] [66] 0 0
s 1.034016782 _1_ RTR  --- 66 cbr 1020 [0 0 0 0] ------- [1:0 0:0 30 0] [66] 0 0
r 1.034316144 _0_ AGT  --- 66 cbr 1020 [31 0 1 800] ------- [1:0 0:0 30 0] [66] 1 0
s 1.034475297 _1_ AGT  --- 67 cbr 1000 [0 0 0 0] ------- [1:0 0:0 32 0] [67] 0 0
r 1.034475297 _1_ RTR  --- 67 cbr 1000 [0 0 0 0] ------- [1:0 0:0 32 0] [67] 0 0
s 1.034475297 _1_ RTR  --- 67 cbr 1020 [0 0 0 0] ------- [1:0 0:0 30 0] [67] 0 0
r 1.034819659 _0_ AGT  --- 67 cbr 1020 [31 0 1 800] ------- [1:0 0:0 30 0] [67] 1 0
s 1.035153983 _1_ AGT  --- 68 cbr 1000 [0 0 0 0] ------- [1:0 0:0 32 0] [68] 0 0
r 1.035153983 _1_ RTR  --- 68 cbr 1000 [0 0 0 0] ------- [1:0 0:0 32 0] [68] 0 0
s 1.035153983 _1_ RTR  --- 68 cbr 1020 [0 0 0 0] ------- [1:0 0:0 30 0] [68] 0 0
s 1.035442019 _1_ AGT  --- 69 cbr 1000 [0 0 0 0] ------- [1:0 0:0 32 0] [69] 0 0
r 1.035442019 _1_ RTR  --- 69 cbr 1000 [0 0 0 0] ------- [1:0 0:0 32 0] [69] 0 0
s 1.035442019 _1_ RTR  --- 69 cbr 1020 [0 0 0 0] ------- [1:0 0:0 30 0] [69] 0 0
r 1.035507345 _0_ AGT  --- 68 cbr 1020 [31 0 1 800] ------- [1:0 0:0 30 0] [68] 1 0
r 1.035859587 _0_ AGT  --- 69 cbr 1020 [31 0 1 800] ------- [1:0 0:0 30 0] [69] 1 0
s 1.036111167 _1_ AGT  --- 70 cbr 1000 [0 0 0 0] ------- [1:0 0:0 32 0] [70] 0 0
r 1.036111167 _1_ RTR  --- 70 cbr 1000 [0 0 0 0] ------- [1:0 0:0 32 0] [70] 0 0
s 1.036111167 _1_ RTR  --- 70 cbr 1020 [0 0 0 0] ------- [1:0 0:0 30 0] [70] 0 0
r 1.036455529 _0_ AGT  --- 70 cbr 1020 [31 0 1 800] ------- [1:0 0:0 30 0] [70] 1 0
s 1.036496045 _1_ AGT  --- 71 cbr 1000 [0 0 0 0] ------- [1:0 0:0 32 0] [71] 0 0
r 1.036496045 _1_ RTR  --- 71 cbr 1000 [0 0 0 0] ------- [1:0 0:0 32 0] [71] 0 0
s 1.036496045 _1_ RTR  --- 71 cbr 1020 [0 0 0 0] ------- [1:0 0:0 30 0] [71] 0 0
r 1.036834771 _0_ AGT  --- 71 cbr 1020 [31 0 1 800] ------- [1:0 0:0 30 0] [71] 1 0
s 1.036961986 _1_ AGT  --- 72 cbr 1000 [0 0 0 0] ------- [1:0 0:0 32 0] [72] 0 0
r 1.036961986 _1_ RTR  --- 72 cbr 1000 [0 0 0 0] ------- [1:0 0:0 32 0] [72] 0 0
s 1.036961986 _1_ RTR  --- 72 cbr 1020 [0 0 0 0] ------- [1:0 0:0 30 0] [72] 0 0
r 1.037279347 _0_ AGT  --- 72 cbr 1020 [31 0 1 800] ------- [1:0 0:0 30 0] [72] 1 0
s 1.037365960 _1_ AGT  --- 73 cbr 1000 [0 0 0 0] ------- [1:0 0:0 32 0] [73] 0 0
r 1.037365960 _1_ RTR  --- 73 cbr 1000 [0 0 0 0] ------- [1:0 0:0 32 0] [73] 0 0
s 1.037365960 _1_ RTR  --- 73 cbr 1020 [0 0 0 0] ------- [1:0 0:0 30 0] [73] 0 0
r 1.037710322 _0_ AGT  --- 73 cbr 1020 [31 0 1 800] ------- [1:0 0:0 30 0] [73] 1 0
s 1.037747839 _1_ AGT  --- 74 cbr 1000 [0 0 0 0] ------- [1:0 0:0 32 0] [74] 0 0
r 1.037747839 _1_ RTR  --- 74 cbr 1000 [0 0 0 0] ------- [1:0 0:0 32 0] [74] 0 0
s 1.037747839 _1_ RTR  --- 74 cbr 1020 [0 0 0 0] ------- [1:0 0:0 30 0] [74] 0 0
r 1.038035563 _0_ AGT  --- 74 cbr 1020 [31 0 1 800] ------- [1:0 0:0 30 0] [74] 1 0
s 1.038174459 _1_ AGT  --- 75 cbr 1000 [0 0 0 0] ------- [1:0 0:0 32 0] [75] 0 0
r 1.038174459 _1_ RTR  --- 75 cbr 1000 [0 0 0 0] ------- [1:0 0:0 32 0] [75] 0 0
s 1.038174459 _1_ RTR  --- 75 cbr 1020 [0 0 0 0] ------- [1:0 0:0 30 0] [75] 0 0
r 1.038405805 _0_ AGT  --- 75 cbr 1020 [31 0 1 800] ------- [1:0 0:0 30 0] [75] 1 0
s 1.038444367 _1_ AGT  --- 76 cbr 1000 [0 0 0 0] ------- [1:0 0:0 32 0] [76] 0 0
r 1.038444367 _1_ RTR  --- 76 cbr 1000 [0 0 0 0] ------- [1:0 0:0 32 0] [76] 0 0
s 1.038444367 _1_ RTR  --- 76 cbr 1020 [0 0 0 0] ------- [1:0 0:0 30 0] [76] 0 0
r 1.038722047 _0_ AGT  --- 76 cbr 1020 [31 0 1 800] ------- [1:0 0:0 30 0] [76] 1 0
s 1.038910682 _1_ AGT  --- 77 cbr 1000 [0 0 0 0] ------- [1:0 0:0 32 0] [77] 0 0
r 1.038910682 _1_ RTR  --- 77 cbr 1000 [0 0 0 0] ------- [1:0 0:0 32 0] [77] 0 0
s 1.038910682 _1_ RTR  --- 77 cbr 1020 [0 0 0 0] ------- [1:0 0:0 30 0] [77] 0 0
r 1.039192043 _0_ AGT  --- 77 cbr 1020 [31 0 1 800] ------- [1:0 0:0 30 0] [77] 1 0
s 1.039481937 _1_ AGT  --- 78 cbr 1000 [0 0 0 0] ------- [1:0 0:0 32 0] [78] 0 0
r 1.039481937 _1_ RTR  --- 78 cbr 1000 [0 0 0 0] ------- [1:0 0:0 32 0] [78] 0 0
s 1.039481937 _1_ RTR  --- 78 cbr 1020 [0 0 0 0] ------- [1:0 0:0 30 0] [78] 0 0
r 1.039781298 _0_ AGT  --- 78 cbr 1020 [31 0 1 800] ------- [1:0 0:0 30 0] [78] 1 0
s 1.039909574 _1_ AGT  --- 79 cbr 1000 [0 0 0 0] ------- [1:0 0:0 32 0] [79] 0 0
r 1.039909574 _1_ RTR  --- 79 cbr 1000 [0 0 0 0] ------- [1:0 0:0 32 0] [79] 0 0
s 1.039909574 _1_ RTR  --- 79 cbr 1020 [0 0 0 0] ------- [1:0 0:0 30 0] [79] 0 0
r 1.040190935 _0_ AGT  --- 79 cbr 1020 [31 0 1 800] ------- [1:0 0:0 30 0] [79] 1 0
s 1.040483332 _1_ AGT  --- 80 cbr 1000 [0 0 0 0] ------- [1:0 0:0 32 0] [80] 0 0
r 1.040483332 _1_ RTR  --- 80 cbr 1000 [0 0 0 0] ------- [1:0 0:0 32 0] [80] 0 0
s 1.040483332 _1_ RTR  --- 80 cbr 1020 [0 0 0 0] ------- [1:0 0:0 30 0] [80] 0 0
r 1.040845694 _0_ AGT  --- 80 cbr 1020 [31 0 1 800] ------- [1:0 0:0 30 0] [80] 1 0
s 1.041049150 _1_ AGT  --- 81 cbr 1000 [0 0 0 0] ------- [1:0 0:0 32 0] [81] 0 0
r 1.041049150 _1_ RTR  --- 81 cbr 1000 [0 0 0 0] ------- [1:0 0:0 32 0] [81] 0 0
s 1.041049150 _1_ RTR  --- 81 cbr 1020 [0 0 0 0] ------- [1:0 0:0 30 0] [81] 0 0
r 1.041321511 _0_ AGT  --- 81 cbr 1020 [31 0 1 800] ------- [1:0 0:0 30 0] [81] 1 0
s 1.041557346 _1_ AGT  --- 82 cbr 1000 [0 0 0 0] ------- [1:0 0:0 32 0] [82] 0 0
r 1.041557346 _1_ RTR  --- 82 cbr 1000 [0 0 0 0] ------- [1:0 0:0 32 0] [82] 0 0
s 1.041557346 _1_ RTR  --- 82 cbr 1020 [0 0 0 0] ------- [1:0 0:0 30 0] [82] 0 0
r 1.041928707 _0_ AGT  --- 82 cbr 1020 [31 0 1 800] ------- [1:0 0:0 30 0] [82] 1 0
s 1.041994962 _1_ AGT  --- 83 cbr 1000 [0 0 0 0] ------- [1:0 0:0 32 0] [83] 0 0
r 1.041994962 _1_ RTR  --- 83 cbr 1000 [0 0 0 0] ------- [1:0 0:0 32 0] [83] 0 0
s 1.041994962 _1_ RTR  --- 83 cbr 1020 [0 0 0 0] ------- [1:0 0:0 30 0] [83] 0 0
r 1.042262949 _0_ AGT  --- 83 cbr 1020 [31 0 1 800] ------- [1:0 0:0 30 0] [83] 1 0
s 1.042458908 _1_ AGT  --- 84 cbr 1000 [0 0 0 0] ------- [1:0 0:0 32 0] [84] 0 0
r 1.042458908 _1_ RTR  --- 84 cbr 1000 [0 0 0 0] ------- [1:0 0:0 32 0] [84] 0 0
s 1.042458908 _1_ RTR  --- 84 cbr 1020 [0 0 0 0] ------- [1:0 0:0 30 0] [84] 0 0
r 1.042839269 _0_ AGT  --- 84 cbr 1020 [31 0 1 800] ------- [1:0 0:0 30 0] [84] 1 0
s 1.043129556 _1_ AGT  --- 85 cbr 1000 [0 0 0 0] ------- [1:0 0:0 32 0] [85] 0 0
r 1.043129556 _1_ RTR  --- 85 cbr 1000 [0 0 0 0] ------- [1:0 0:0 32 0] [85] 0 0
s 1.043129556 _1_ RTR  --- 85 cbr 1020 [0 0 0 0] ------- [1:0 0:0 30 0] [85] 0 0
r 1.043482918 _0_ AGT  --- 85 cbr 1020 [31 0 1 800] ------- [1:0 0:0 30 0] [85] 1 0
s 1.043639607 _1_ AGT  --- 86 cbr 1000 [0 0 0 0] ------- [1:0 0:0 32 0] [86] 0 0
r 1.043639607 _1_ RTR  --- 86 cbr 1000 [0 0 0 0] ------- [1:0 0:0 32 0] [86] 0 0
s 1.043639607 _1_ RTR  --- 86 cbr 1020 [0 0 0 0] ------- [1:0 0:0 30 0] [86] 0 0
r 1.043983968 _0_ AGT  --- 86 cbr 1020 [31 0 1 800] ------- [1:0 0:0 30 0] [86] 1 0
s 1.044351505 _1_ AGT  --- 87 cbr 1000 [0 0 0 0] ------- [1:0 0:0 32 0] [87] 0 0
r 1.044351505 _1_ RTR  --- 87 cbr 1000 [0 0 0 0] ------- [1:0 0:0 32 0] [87] 0 0
s 1.044351505 _1_ RTR  --- 87 cbr 1020 [0 0 0 0] ------- [1:0 0:0 30 0] [87] 0 0
r 1.044641867 _0_ AGT  --- 87 cbr 1020 [31 0 1 800] ------- [1:0 0:0 30 0] [87] 1 0
s 1.044757903 _1_ AGT  --- 88 cbr 1000 [0 0 0 0] ------- [1:0 0:0 32 0] [88] 0 0
r 1.044757903 _1_ RTR  --- 88 cbr 1000 [0 0 0 0] ------- [1:0 0:0 32 0] [88] 0 0
s 1.044757903 _1_ RTR  --- 88 cbr 1020 [0 0 0 0] ------- [1:0 0:0 30 0] [88] 0 0
r 1.045111264 _0_ AGT  --- 88 cbr 1020 [31 0 1 800] ------- [1:0 0:0 30 0] [88] 1 0