s 1.000000000 _1_ AGT  --- 0 cbr 1000 [0 0 0 0] ------- [1:0 0:0 32 0] [0] 0 0
r 1.000000000 _1_ RTR  --- 0 cbr 1000 [0 0 0 0] ------- [1:0 0:0 32 0] [0] 0 0
s 1.000000000 _1_ RTR  --- 0 AODV 48 [0 0 0 0] ------- [1:255 -1:255 30 0] [0x2 1 1 [0 0] [1 4]] (REQUEST)
r 1.000261547 _0_ RTR  --- 0 AODV 48 [0 ffffffff 1 800] ------- [1:255 -1:255 30 0] [0x2 1 1 [0 0] [1 4]] (REQUEST)
s 1.000261547 _0_ RTR  --- 0 AODV 44 [0 0 0 0] ------- [0:255 1:255 30 1] [0x4 1 [0 4] 10.000000] (REPLY)
r 1.000261600 _2_ RTR  --- 0 AODV 48 [0 ffffffff 1 800] ------- [1:255 -1:255 30 0] [0x2 1 1 [0 0] [1 4]] (REQUEST)
s 1.000527940 _1_ AGT  --- 1 cbr 1000 [0 0 0 0] ------- [1:0 0:0 32 0] [1] 0 0
r 1.000527940 _1_ RTR  --- 1 cbr 1000 [0 0 0 0] ------- [1:0 0:0 32 0] [1] 0 0
r 1.000773261 _1_ RTR  --- 0 AODV 44 [31 1 0 800] ------- [0:255 1:255 30 1] [0x4 1 [0 4] 10.000000] (REPLY)
s 1.000773261 _1_ RTR  --- 0 cbr 1020 [0 0 0 0] ------- [1:0 0:0 30 0] [0] 0 0
s 1.000895241 _1_ AGT  --- 2 cbr 1000 [0 0 0 0] ------- [1:0 0:0 32 0] [2] 0 0
r 1.000895241 _1_ RTR  --- 2 cbr 1000 [0 0 0 0] ------- [1:0 0:0 32 0] [2] 0 0
s 1.000895241 _1_ RTR  --- 2 cbr 1020 [0 0 0 0] ------- [1:0 0:0 30 0] [2] 0 0
r 1.001126623 _0_ AGT  --- 0 cbr 1020 [31 0 1 800] ------- [1:0 0:0 30 0] [0] 1 0
s 1.001166639 _1_ AGT  --- 3 cbr 1000 [0 0 0 0] ------- [1:0 0:0 32 0] [3] 0 0
r 1.001166639 _1_ RTR  --- 3 cbr 1000 [0 0 0 0] ------- [1:0 0:0 32 0] [3] 0 0
s 1.001166639 _1_ RTR  --- 3 cbr 1020 [0 0 0 0] ------- [1:0 0:0 30 0] [3] 0 0
r 1.001433864 _0_ AGT  --- 2 cbr 1020 [31 0 1 800] ------- [1:0 0:0 30 0] [2] 1 0
s 1.001473543 _1_ AGT  --- 4 cbr 1000 [0 0 0 0] ------- [1:0 0:0 32 0] [4] 0 0
r 1.001473543 _1_ RTR  --- 4 cbr 1000 [0 0 0 0] ------- [1:0 0:0 32 0] [4] 0 0
s 1.001473543 _1_ RTR  --- 4 cbr 1020 [0 0 0 0] ------- [1:0 0:0 30 0] [4] 0 0
r 1.001741106 _0_ AGT  --- 3 cbr 1020 [31 0 1 800] ------- [1:0 0:0 30 0] [3] 1 0
s 1.001935371 _1_ AGT  --- 5 cbr 1000 [0 0 0 0] ------- [1:0 0:0 32 0] [5] 0 0
r 1.001935371 _1_ RTR  --- 5 cbr 1000 [0 0 0 0] ------- [1:0 0:0 32 0] [5] 0 0
s 1.001935371 _1_ RTR  --- 5 cbr 1020 [0 0 0 0] ------- [1:0 0:0 30 0] [5] 0 0
r 1.002120348 _0_ AGT  --- 4 cbr 1020 [31 0 1 800] ------- [1:0 0:0 30 0] [4] 1 0
s 1.002232440 _1_ AGT  --- 6 cbr 1000 [0 0 0 0] ------- [1:0 0:0 32 0] [6] 0 0
r 1.002232440 _1_ RTR  --- 6 cbr 1000 [0 0 0 0] ------- [1:0 0:0 32 0] [6] 0 0
s 1.002232440 _1_ RTR  --- 6 cbr 1020 [0 0 0 0] ------- [1:0 0:0 30 0] [6] 0 0
r 1.002391590 _0_ AGT  --- 5 cbr 1020 [31 0 1 800] ------- [1:0 0:0 30 0] [5] 1 0
s 1.002656811 _1_ AGT  --- 7 cbr 1000 [0 0 0 0] ------- [1:0 0:0 32 0] [7] 0 0
r 1.002656811 _1_ RTR  --- 7 cbr 1000 [0 0 0 0] ------- [1:0 0:0 32 0] [7] 0 0
s 1.002656811 _1_ RTR  --- 7 cbr 1020 [0 0 0 0] ------- [1:0 0:0 30 0] [7] 0 0
r 1.002770831 _0_ AGT  --- 6 cbr 1020 [31 0 1 800] ------- [1:0 0:0 30 0] [6] 1 0
s 1.003111154 _1_ AGT  --- 8 cbr 1000 [0 0 0 0] ------- [1:0 0:0 32 0] [8] 0 0
r 1.003111154 _1_ RTR  --- 8 cbr 1000 [0 0 0 0] ------- [1:0 0:0 32 0] [8] 0 0
s 1.003111154 _1_ RTR  --- 8 cbr 1020 [0 0 0 0] ------- [1:0 0:0 30 0] [8] 0 0
r 1.003114073 _0_ AGT  --- 7 cbr 1020 [31 0 1 800] ------- [1:0 0:0 30 0] [7] 1 0
r 1.003466315 _0_ AGT  --- 8 cbr 1020 [31 0 1 800] ------- [1:0 0:0 30 0] [8] 1 0
s 1.003594212 _1_ AGT  --- 9 cbr 1000 [0 0 0 0] ------- [1:0 0:0 32 0] [9] 0 0
r 1.003594212 _1_ RTR  --- 9 cbr 1000 [0 0 0 0] ------- [1:0 0:0 32 0] [9] 0 0
s 1.003594212 _1_ RTR  --- 9 cbr 1020 [0 0 0 0] ------- [1:0 0:0 30 0] [9] 0 0
r 1.003875573 _0_ AGT  --- 9 cbr 1020 [31 0 1 800] ------- [1:0 0:0 30 0] [9] 1 0
s 1.004264124 _1_ AGT  --- 10 cbr 1000 [0 0 0 0] ------- [1:0 0:0 32 0] [10] 0 0
r 1.004264124 _1_ RTR  --- 10 cbr 1000 [0 0 0 0] ------- [1:0 0:0 32 0] [10] 0 0
s 1.004264124 _1_ RTR  --- 10 cbr 1020 [0 0 0 0] ------- [1:0 0:0 30 0] [10] 0 0
r 1.004644486 _0_ AGT  --- 10 cbr 1020 [31 0 1 800] ------- [1:0 0:0 30 0] [10] 1 0
s 1.004673334 _2_ RTR  --- 0 AODV 48 [0 ffffffff 1 800] ------- [2:255 -1:255 29 0] [0x2 2 1 [0 0] [1 4]] (REQUEST)
s 1.004939678 _1_ AGT  --- 11 cbr 1000 [0 0 0 0] ------- [1:0 0:0 32 0] [11] 0 0
r 1.004939678 _1_ RTR  --- 11 cbr 1000 [0 0 0 0] ------- [1:0 0:0 32 0] [11] 0 0
s 1.004939678 _1_ RTR  --- 11 cbr 1020 [0 0 0 0] ------- [1:0 0:0 30 0] [11] 0 0
r 1.004988881 _0_ RTR  --- 0 AODV 48 [0 ffffffff 2 800] ------- [2:255 -1:255 29 0] [0x2 2 1 [0 0] [1 4]] (REQUEST)
r 1.004988934 _1_ RTR  --- 0 AODV 48 [0 ffffffff 2 800] ------- [2:255 -1:255 29 0] [0x2 2 1 [0 0] [1 4]] (REQUEST)
r 1.005302039 _0_ AGT  --- 11 cbr 1020 [31 0 1 800] ------- [1:0 0:0 30 0] [11] 1 0
s 1.005392437 _1_ AGT  --- 12 cbr 1000 [0 0 0 0] ------- [1:0 0:0 32 0] [12] 0 0
r 1.005392437 _1_ RTR  --- 12 cbr 1000 [0 0 0 0] ------- [1:0 0:0 32 0] [12] 0 0
s 1.005392437 _1_ RTR  --- 12 cbr 1020 [0 0 0 0] ------- [1:0 0:0 30 0] [12] 0 0
r 1.005663281 _0_ AGT  --- 12 cbr 1020 [31 0 1 800] ------- [1:0 0:0 30 0] [12] 1 0
s 1.006086159 _1_ AGT  --- 13 cbr 1000 [0 0 0 0] ------- [1:0 0:0 32 0] [13] 0 0
r 1.006086159 _1_ RTR  --- 13 cbr 1000 [0 0 0 0] ------- [1:0 0:0 32 0] [13] 0 0
s 1.006086159 _1_ RTR  --- 13 cbr 1020 [0 0 0 0] ------- [1:0 0:0 30 0] [13] 0 0
r 1.006457521 _0_ AGT  --- 13 cbr 1020 [31 0 1 800] ------- [1:0 0:0 30 0] [13] 1 0
s 1.006781833 _1_ AGT  --- 14 cbr 1000 [0 0 0 0] ------- [1:0 0:0 32 0] [14] 0 0
r 1.006781833 _1_ RTR  --- 14 cbr 1000 [0 0 0 0] ------- [1:0 0:0 32 0] [14] 0 0
s 1.006781833 _1_ RTR  --- 14 cbr 1020 [0 0 0 0] ------- [1:0 0:0 30 0] [14] 0 0
r 1.007036194 _0_ AGT  --- 14 cbr 1020 [31 0 1 800] ------- [1:0 0:0 30 0] [14] 1 0
s 1.007037237 _1_ AGT  --- 15 cbr 1000 [0 0 0 0] ------- [1:0 0:0 32 0] [15] 0 0
r 1.007037237 _1_ RTR  --- 15 cbr 1000 [0 0 0 0] ------- [1:0 0:0 32 0] [15] 0 0
s 1.007037237 _1_ RTR  --- 15 cbr 1020 [0 0 0 0] ------- [1:0 0:0 30 0] [15] 0 0
r 1.007415436 _0_ AGT  --- 15 cbr 1020 [31 0 1 800] ------- [1:0 0:0 30 0] [15] 1 0
s 1.007455068 _1_ AGT  --- 16 cbr 1000 [0 0 0 0] ------- [1:0 0:0 32 0] [16] 0 0
r 1.007455068 _1_ RTR  --- 16 cbr 1000 [0 0 0 0] ------- [1:0 0:0 32 0] [16] 0 0
s 1.007455068 _1_ RTR  --- 16 cbr 1020 [0 0 0 0] ------- [1:0 0:0 30 0] [16] 0 0
r 1.007686678 _0_ AGT  --- 16 cbr 1020 [31 0 1 800] ------- [1:0 0:0 30 0] [16] 1 0
s 1.007833565 _1_ AGT  --- 17 cbr 1000 [0 0 0 0] ------- [1:0 0:0 32 0] [17] 0 0
r 1.007833565 _1_ RTR  --- 17 cbr 1000 [0 0 0 0] ------- [1:0 0:0 32 0] [17] 0 0
s 1.007833565 _1_ RTR  --- 17 cbr 1020 [0 0 0 0] ------- [1:0 0:0 30 0] [17] 0 0
r 1.008204927 _0_ AGT  --- 17 cbr 1020 [31 0 1 800] ------- [1:0 0:0 30 0] [17] 1 0
s 1.008355976 _1_ AGT  --- 18 cbr 1000 [0 0 0 0] ------- [1:0 0:0 32 0] [18] 0 0
r 1.008355976 _1_ RTR  --- 18 cbr 1000 [0 0 0 0] ------- [1:0 0:0 32 0] [18] 0 0
s 1.008355976 _1_ RTR  --- 18 cbr 1020 [0 0 0 0] ------- [1:0 0:0 30 0] [18] 0 0
r 1.008584169 _0_ AGT  --- 18 cbr 1020 [31 0 1 800] ------- [1:0 0:0 30 0] [18] 1 0
s 1.008883396 _1_ AGT  --- 19 cbr 1000 [0 0 0 0] ------- [1:0 0:0 32 0] [19] 0 0
r 1.008883396 _1_ RTR  --- 19 cbr 1000 [0 0 0 0] ------- [1:0 0:0 32 0] [19] 0 0
s 1.008883396 _1_ RTR  --- 19 cbr 1020 [0 0 0 0] ------- [1:0 0:0 30 0] [19] 0 0
s 1.009147175 _1_ AGT  --- 20 cbr 1000 [0 0 0 0] ------- [1:0 0:0 32 0] [20] 0 0
r 1.009147175 _1_ RTR  --- 20 cbr 1000 [0 0 0 0] ------- [1:0 0:0 32 0] [20] 0 0
s 1.009147175 _1_ RTR  --- 20 cbr 1020 [0 0 0 0] ------- [1:0 0:0 30 0] [20] 0 0
r 1.009254758 _0_ AGT  --- 19 cbr 1020 [31 0 1 800] ------- [1:0 0:0 30 0] [19] 1 0
s 1.009490282 _1_ AGT  --- 21 cbr 1000 [0 0 0 0] ------- [1:0 0:0 32 0] [21] 0 0
r 1.009490282 _1_ RTR  --- 21 cbr 1000 [0 0 0 0] ------- [1:0 0:0 32 0] [21] 0 0
s 1.009490282 _1_ RTR  --- 21 cbr 1020 [0 0 0 0] ------- [1:0 0:0 30 0] [21] 0 0
r 1.009516999 _0_ AGT  --- 20 cbr 1020 [31 0 1 800] ------- [1:0 0:0 30 0] [20] 1 0
r 1.009860241 _0_ AGT  --- 21 cbr 1020 [31 0 1 800] ------- [1:0 0:0 30 0] [21] 1 0
s 1.010213690 _1_ AGT  --- 22 cbr 1000 [0 0 0 0] ------- [1:0 0:0 32 0] [22] 0 0
r 1.010213690 _1_ RTR  --- 22 cbr 1000 [0 0 0 0] ------- [1:0 0:0 32 0] [22] 0 0
s 1.010213690 _1_ RTR  --- 22 cbr 1020 [0 0 0 0] ------- [1:0 0:0 30 0] [22] 0 0
r 1.010558052 _0_ AGT  --- 22 cbr 1020 [31 0 1 800] ------- [1:0 0:0 30 0] [22] 1 0
s 1.010773261 _1_ RTR  --- 1 cbr 1020 [0 0 0 0] ------- [1:0 0:0 30 0] [1] 0 0
s 1.010811159 _1_ AGT  --- 23 cbr 1000 [0 0 0 0] ------- [1:0 0:0 32 0] [23] 0 0
r 1.010811159 _1_ RTR  --- 23 cbr 1000 [0 0 0 0] ------- [1:0 0:0 32 0] [23] 0 0
s 1.010811159 _1_ RTR  --- 23 cbr 1020 [0 0 0 0] ------- [1:0 0:0 30 0] [23] 0 0
r 1.011099623 _0_ AGT  --- 1 cbr 1020 [31 0 1 800] ------- [1:0 0:0 30 0] [1] 1 0
s 1.011307020 _1_ AGT  --- 24 cbr 1000 [0 0 0 0] ------- [1:0 0:0 32 0] [24] 0 0
r 1.011307020 _1_ RTR  --- 24 cbr 1000 [0 0 0 0] ------- [1:0 0:0 32 0] [24] 0 0
s 1.011307020 _1_ RTR  --- 24 cbr 1020 [0 0 0 0] ------- [1:0 0:0 30 0] [24] 0 0
r 1.011460864 _0_ AGT  --- 23 cbr 1020 [31 0 1 800] ------- [1:0 0:0 30 0] [23] 1 0
r 1.011768106 _0_ AGT  --- 24 cbr 1020 [31 0 1 800] ------- [1:0 0:0 30 0] [24] 1 0
s 1.011989572 _1_ AGT  --- 25 cbr 1000 [0 0 0 0] ------- [1:0 0:0 32 0] [25] 0 0
r 1.011989572 _1_ RTR  --- 25 cbr 1000 [0 0 0 0] ------- [1:0 0:0 32 0] [25] 0 0
s 1.011989572 _1_ RTR  --- 25 cbr 1020 [0 0 0 0] ------- [1:0 0:0 30 0] [25] 0 0
r 1.012333934 _0_ AGT  --- 25 cbr 1020 [31 0 1 800] ------- [1:0 0:0 30 0] [25] 1 0
s 1.012450182 _1_ AGT  --- 26 cbr 1000 [0 0 0 0] ------- [1:0 0:0 32 0] [26] 0 0
r 1.012450182 _1_ RTR  --- 26 cbr 1000 [0 0 0 0] ------- [1:0 0:0 32 0] [26] 0 0
s 1.012450182 _1_ RTR  --- 26 cbr 1020 [0 0 0 0] ------- [1:0 0:0 30 0] [26] 0 0
r 1.012830544 _0_ AGT  --- 26 cbr 1020 [31 0 1 800] ------- [1:0 0:0 30 0] [26] 1 0
s 1.013151606 _1_ AGT  --- 27 cbr 1000 [0 0 0 0] ------- [1:0 0:0 32 0] [27] 0 0
r 1.013151606 _1_ RTR  --- 27 cbr 1000 [0 0 0 0] ------- [1:0 0:0 32 0] [27] 0 0
s 1.013151606 _1_ RTR  --- 27 cbr 1020 [0 0 0 0] ------- [1:0 0:0 30 0] [27] 0 0
r 1.013486968 _0_ AGT  --- 27 cbr 1020 [31 0 1 800] ------- [1:0 0:0 30 0] [27] 1 0
s 1.013694662 _1_ AGT  --- 28 cbr 1000 [0 0 0 0] ------- [1:0 0:0 32 0] [28] 0 0
r 1.013694662 _1_ RTR  --- 28 cbr 1000 [0 0 0 0] ------- [1:0 0:0 32 0] [28] 0 0
s 1.013694662 _1_ RTR  --- 28 cbr 1020 [0 0 0 0] ------- [1:0 0:0 30 0] [28] 0 0
r 1.013985024 _0_ AGT  --- 28 cbr 1020 [31 0 1 800] ------- [1:0 0:0 30 0] [28] 1 0
s 1.014122692 _1_ AGT  --- 29 cbr 1000 [0 0 0 0] ------- [1:0 0:0 32 0] [29] 0 0
r 1.014122692 _1_ RTR  --- 29 cbr 1000 [0 0 0 0] ------- [1:0 0:0 32 0] [29] 0 0
s 1.014122692 _1_ RTR  --- 29 cbr 1020 [0 0 0 0] ------- [1:0 0:0 30 0] [29] 0 0
r 1.014485053 _0_ AGT  --- 29 cbr 1020 [31 0 1 800] ------- [1:0 0:0 30 0] [29] 1 0
s 1.014764579 _1_ AGT  --- 30 cbr 1000 [0 0 0 0] ------- [1:0 0:0 32 0] [30] 0 0
r 1.014764579 _1_ RTR  --- 30 cbr 1000 [0 0 0 0] ------- [1:0 0:0 32 0] [30] 0 0
s 1.014764579 _1_ RTR  --- 30 cbr 1020 [0 0 0 0] ------- [1:0 0:0 30 0] [30] 0 0
r 1.015108941 _0_ AGT  --- 30 cbr 1020 [31 0 1 800] ------- [1:0 0:0 30 0] [30] 1 0
s 1.015217768 _1_ AGT  --- 31 cbr 1000 [0 0 0 0] ------- [1:0 0:0 32 0] [31] 0 0
r 1.015217768 _1_ RTR  --- 31 cbr 1000 [0 0 0 0] ------- [1:0 0:0 32 0] [31] 0 0
s 1.015217768 _1_ RTR  --- 31 cbr 1020 [0 0 0 0] ------- [1:0 0:0 30 0] [31] 0 0
s 1.015467855 _1_ AGT  --- 32 cbr 1000 [0 0 0 0] ------- [1:0 0:0 32 0] [32] 0 0
r 1.015467855 _1_ RTR  --- 32 cbr 1000 [0 0 0 0] ------- [1:0 0:0 32 0] [32] 0 0
s 1.015467855 _1_ RTR  --- 32 cbr 1020 [0 0 0 0] ------- [1:0 0:0 30 0] [32] 0 0
r 1.015517130 _0_ AGT  --- 31 cbr 1020 [31 0 1 800] ------- [1:0 0:0 30 0] [31] 1 0
r 1.015779371 _0_ AGT  --- 32 cbr 1020 [31 0 1 800] ------- [1:0 0:0 30 0] [32] 1 0
s 1.015883962 _1_ AGT  --- 33 cbr 1000 [0 0 0 0] ------- [1:0 0:0 32 0] [33] 0 0
r 1.015883962 _1_ RTR  --- 33 cbr 1000 [0 0 0 0] ------- [1:0 0:0 32 0] [33] 0 0
s 1.015883962 _1_ RTR  --- 33 cbr 1020 [0 0 0 0] ------- [1:0 0:0 30 0] [33] 0 0
s 1.016150359 _1_ AGT  --- 34 cbr 1000 [0 0 0 0] ------- [1:0 0:0 32 0] [34] 0 0
r 1.016150359 _1_ RTR  --- 34 cbr 1000 [0 0 0 0] ------- [1:0 0:0 32 0] [34] 0 0
s 1.016150359 _1_ RTR  --- 34 cbr 1020 [0 0 0 0] ------- [1:0 0:0 30 0] [34] 0 0
r 1.016246324 _0_ AGT  --- 33 cbr 1020 [31 0 1 800] ------- [1:0 0:0 30 0] [33] 1 0
r 1.016508566 _0_ AGT  --- 34 cbr 1020 [31 0 1 800] ------- [1:0 0:0 30 0] [34] 1 0
s 1.016552853 _1_ AGT  --- 35 cbr 1000 [0 0 0 0] ------- [1:0 0:0 32 0] [35] 0 0
r 1.016552853 _1_ RTR  --- 35 cbr 1000 [0 0 0 0] ------- [1:0 0:0 32 0] [35] 0 0
s 1.016552853 _1_ RTR  --- 35 cbr 1020 [0 0 0 0] ------- [1:0 0:0 30 0] [35] 0 0
r 1.016816215 _0_ AGT  --- 35 cbr 1020 [31 0 1 800] ------- [1:0 0:0 30 0] [35] 1 0
s 1.017243482 _1_ AGT  --- 36 cbr 1000 [0 0 0 0] ------- [1:0 0:0 32 0] [36] 0 0
r 1.017243482 _1_ RTR  --- 36 cbr 1000 [0 0 0 0] ------- [1:0 0:0 32 0] [36] 0 0
s 1.017243482 _1_ RTR  --- 36 cbr 1020 [0 0 0 0] ------- [1:0 0:0 30 0] [36] 0 0
s 1.017579091 _1_ AGT  --- 37 cbr 1000 [0 0 0 0] ------- [1:0 0:0 32 0] [37] 0 0
r 1.017579091 _1_ RTR  --- 37 cbr 1000 [0 0 0 0] ------- [1:0 0:0 32 0] [37] 0 0
s 1.017579091 _1_ RTR  --- 37 cbr 1020 [0 0 0 0] ------- [1:0 0:0 30 0] [37] 0 0
r 1.017623843 _0_ AGT  --- 36 cbr 1020 [31 0 1 800] ------- [1:0 0:0 30 0] [36] 1 0
r 1.017985085 _0_ AGT  --- 37 cbr 1020 [31 0 1 800] ------- [1:0 0:0 30 0] [37] 1 0
s 1.018206709 _1_ AGT  --- 38 cbr 1000 [0 0 0 0] ------- [1:0 0:0 32 0] [38] 0 0
r 1.018206709 _1_ RTR  --- 38 cbr 1000 [0 0 0 0] ------- [1:0 0:0 32 0] [38] 0 0
s 1.018206709 _1_ RTR  --- 38 cbr 1020 [0 0 0 0] ------- [1:0 0:0 30 0] [38] 0 0
r 1.018461071 _0_ AGT  --- 38 cbr 1020 [31 0 1 800] ------- [1:0 0:0 30 0] [38] 1 0
s 1.018717082 _1_ AGT  --- 39 cbr 1000 [0 0 0 0] ------- [1:0 0:0 32 0] [39] 0 0
r 1.018717082 _1_ RTR  --- 39 cbr 1000 [0 0 0 0] ------- [1:0 0:0 32 0] [39] 0 0
s 1.018717082 _1_ RTR  --- 39 cbr 1020 [0 0 0 0] ------- [1:0 0:0 30 0] [39] 0 0
s 1.018975081 _1_ AGT  --- 40 cbr 1000 [0 0 0 0] ------- [1:0 0:0 32 0] [40] 0 0
r 1.018975081 _1_ RTR  --- 40 cbr 1000 [0 0 0 0] ------- [1:0 0:0 32 0] [40] 0 0
s 1.018975081 _1_ RTR  --- 40 cbr 1020 [0 0 0 0] ------- [1:0 0:0 30 0] [40] 0 0
r 1.019097444 _0_ AGT  --- 39 cbr 1020 [31 0 1 800] ------- [1:0 0:0 30 0] [39] 1 0
r 1.019404686 _0_ AGT  --- 40 cbr 1020 [31 0 1 800] ------- [1:0 0:0 30 0] [40] 1 0
s 1.019443692 _1_ AGT  --- 41 cbr 1000 [0 0 0 0] ------- [1:0 0:0 32 0] [41] 0 0
r 1.019443692 _1_ RTR  --- 41 cbr 1000 [0 0 0 0] ------- [1:0 0:0 32 0] [41] 0 0
s 1.019443692 _1_ RTR  --- 41 cbr 1020 [0 0 0 0] ------- [1:0 0:0 30 0] [41] 0 0
r 1.019675927 _0_ AGT  --- 41 cbr 1020 [31 0 1 800] ------- [1:0 0:0 30 0] [41] 1 0
s 1.020143399 _1_ AGT  --- 42 cbr 1000 [0 0 0 0] ------- [1:0 0:0 32 0] [42] 0 0
r 1.020143399 _1_ RTR  --- 42 cbr 1000 [0 0 0 0] ------- [1:0 0:0 32 0] [42] 0 0
s 1.020143399 _1_ RTR  --- 42 cbr 1020 [0 0 0 0] ------- [1:0 0:0 30 0] [42] 0 0
r 1.020424761 _0_ AGT  --- 42 cbr 1020 [31 0 1 800] ------- [1:0 0:0 30 0] [42] 1 0
s 1.020608602 _1_ AGT  --- 43 cbr 1000 [0 0 0 0] ------- [1:0 0:0 32 0] [43] 0 0
r 1.020608602 _1_ RTR  --- 43 cbr 1000 [0 0 0 0] ------- [1:0 0:0 32 0] [43] 0 0
s 1.020608602 _1_ RTR  --- 43 cbr 1020 [0 0 0 0] ------- [1:0 0:0 30 0] [43] 0 0
r 1.020952963 _0_ AGT  --- 43 cbr 1020 [31 0 1 800] ------- [1:0 0:0 30 0] [43] 1 0
s 1.021226429 _1_ AGT  --- 44 cbr 1000 [0 0 0 0] ------- [1:0 0:0 32 0] [44] 0 0
r 1.021226429 _1_ RTR  --- 44 cbr 1000 [0 0 0 0] ------- [1:0 0:0 32 0] [44] 0 0
s 1.021226429 _1_ RTR  --- 44 cbr 1020 [0 0 0 0] ------- [1:0 0:0 30 0] [44] 0 0
r 1.021606790 _0_ AGT  --- 44 cbr 1020 [31 0 1 800] ------- [1:0 0:0 30 0] [44] 1 0
s 1.021787874 _1_ AGT  --- 45 cbr 1000 [0 0 0 0] ------- [1:0 0:0 32 0] [45] 0 0
r 1.021787874 _1_ RTR  --- 45 cbr 1000 [0 0 0 0] ------- [1:0 0:0 32 0] [45] 0 0
s 1.021787874 _1_ RTR  --- 45 cbr 1020 [0 0 0 0] ------- [1:0 0:0 30 0] [45] 0 0
r 1.022132235 _0_ AGT  --- 45 cbr 1020 [31 0 1 800] ------- [1:0 0:0 30 0] [45] 1 0
s 1.022155644 _1_ AGT  --- 46 cbr 1000 [0 0 0 0] ------- [1:0 0:0 32 0] [46] 0 0
r 1.022155644 _1_ RTR  --- 46 cbr 1000 [0 0 0 0] ------- [1:0 0:0 32 0] [46] 0 0
s 1.022155644 _1_ RTR  --- 46 cbr 1020 [0 0 0 0] ------- [1:0 0:0 30 0] [46] 0 0
r 1.022394477 _0_ AGT  --- 46 cbr 1020 [31 0 1 800] ------- [1:0 0:0 30 0] [46] 1 0
s 1.022493986 _1_ AGT  --- 47 cbr 1000 [0 0 0 0] ------- [1:0 0:0 32 0] [47] 0 0
r 1.022493986 _1_ RTR  --- 47 cbr 1000 [0 0 0 0] ------- [1:0 0:0 32 0] [47] 0 0
s 1.022493986 _1_ RTR  --- 47 cbr 1020 [0 0 0 0] ------- [1:0 0:0 30 0] [47] 0 0
r 1.022874348 _0_ AGT  --- 47 cbr 1020 [31 0 1 800] ------- [1:0 0:0 30 0] [47] 1 0
s 1.023033237 _1_ AGT  --- 48 cbr 1000 [0 0 0 0] ------- [1:0 0:0 32 0] [48] 0 0
r 1.023033237 _1_ RTR  --- 48 cbr 1000 [0 0 0 0] ------- [1:0 0:0 32 0] [48] 0 0
s 1.023033237 _1_ RTR  --- 48 cbr 1020 [0 0 0 0] ------- [1:0 0:0 30 0] [48] 0 0
r 1.023314599 _0_ AGT  --- 48 cbr 1020 [31 0 1 800] ------- [1:0 0:0 30 0] [48] 1 0
s 1.023698358 _1_ AGT  --- 49 cbr 1000 [0 0 0 0] ------- [1:0 0:0 32 0] [49] 0 0
r 1.023698358 _1_ RTR  --- 49 cbr 1000 [0 0 0 0] ------- [1:0 0:0 32 0] [49] 0 0
s 1.023698358 _1_ RTR  --- 49 cbr 1020 [0 0 0 0] ------- [1:0 0:0 30 0] [49] 0 0
r 1.023979719 _0_ AGT  --- 49 cbr 1020 [31 0 1 800] ------- [1:0 0:0 30 0] [49] 1 0
s 1.024345377 _1_ AGT  --- 50 cbr 1000 [0 0 0 0] ------- [1:0 0:0 32 0] [50] 0 0
r 1.024345377 _1_ RTR  --- 50 cbr 1000 [0 0 0 0] ------- [1:0 0:0 32 0] [50] 0 0
s 1.024345377 _1_ RTR  --- 50 cbr 1020 [0 0 0 0] ------- [1:0 0:0 30 0] [50] 0 0
r 1.024608738 _0_ AGT  --- 50 cbr 1020 [31 0 1 800] ------- [1:0 0:0 30 0] [50] 1 0
s 1.024709865 _1_ AGT  --- 51 cbr 1000 [0 0 0 0] ------- [1:0 0:0 32 0] [51] 0 0
r 1.024709865 _1_ RTR  --- 51 cbr 1000 [0 0 0 0] ------- [1:0 0:0 32 0] [51] 0 0
s 1.024709865 _1_ RTR  --- 51 cbr 1020 [0 0 0 0] ------- [1:0 0:0 30 0] [51] 0 0
r 1.025054227 _0_ AGT  --- 51 cbr 1020 [31 0 1 800] ------- [1:0 0:0 30 0] [51] 1 0
s 1.025189852 _1_ AGT  --- 52 cbr 1000 [0 0 0 0] ------- [1:0 0:0 32 0] [52] 0 0
r 1.025189852 _1_ RTR  --- 52 cbr 1000 [0 0 0 0] ------- [1:0 0:0 32 0] [52] 0 0
s 1.025189852 _1_ RTR  --- 52 cbr 1020 [0 0 0 0] ------- [1:0 0:0 30 0] [52] 0 0
r 1.025453214 _0_ AGT  --- 52 cbr 1020 [31 0 1 800] ------- [1:0 0:0 30 0] [52] 1 0
s 1.025892705 _1_ AGT  --- 53 cbr 1000 [0 0 0 0] ------- [1:0 0:0 32 0] [53] 0 0
r 1.025892705 _1_ RTR  --- 53 cbr 1000 [0 0 0 0] ------- [1:0 0:0 32 0] [53] 0 0
s 1.025892705 _1_ RTR  --- 53 cbr 1020 [0 0 0 0] ------- [1:0 0:0 30 0] [53] 0 0
r 1.026192067 _0_ AGT  --- 53 cbr 1020 [31 0 1 800] ------- [1:0 0:0 30 0] [53] 1 0
s 1.026412821 _1_ AGT  --- 54 cbr 1000 [0 0 0 0] ------- [1:0 0:0 32 0] [54] 0 0
r 1.026412821 _1_ RTR  --- 54 cbr 1000 [0 0 0 0] ------- [1:0 0:0 32 0] [54] 0 0
s 1.026412821 _1_ RTR  --- 54 cbr 1020 [0 0 0 0] ------- [1:0 0:0 30 0] [54] 0 0
r 1.026721183 _0_ AGT  --- 54 cbr 1020 [31 0 1 800] ------- [1:0 0:0 30 0] [54] 1 0
s 1.027148737 _1_ AGT  --- 55 cbr 1000 [0 0 0 0] ------- [1:0 0:0 32 0] [55] 0 0
r 1.027148737 _1_ RTR  --- 55 cbr 1000 [0 0 0 0] ------- [1:0 0:0 32 0] [55] 0 0
s 1.027148737 _1_ RTR  --- 55 cbr 1020 [0 0 0 0] ------- [1:0 0:0 30 0] [55] 0 0
r 1.027475098 _0_ AGT  --- 55 cbr 1020 [31 0 1 800] ------- [1:0 0:0 30 0] [55] 1 0
s 1.027763630 _1_ AGT  --- 56 cbr 1000 [0 0 0 0] ------- [1:0 0:0 32 0] [56] 0 0
r 1.027763630 _1_ RTR  --- 56 cbr 1000 [0 0 0 0] ------- [1:0 0:0 32 0] [56] 0 0
s 1.027763630 _1_ RTR  --- 56 cbr 1020 [0 0 0 0] ------- [1:0 0:0 30 0] [56] 0 0
r 1.028125992 _0_ AGT  --- 56 cbr 1020 [31 0 1 800] ------- [1:0 0:0 30 0] [56] 1 0
s 1.028388477 _1_ AGT  --- 57 cbr 1000 [0 0 0 0] ------- [1:0 0:0 32 0] [57] 0 0
r 1.028388477 _1_ RTR  --- 57 cbr 1000 [0 0 0 0] ------- [1:0 0:0 32 0] [57] 0 0
s 1.028388477 _1_ RTR  --- 57 cbr 1020 [0 0 0 0] ------- [1:0 0:0 30 0] [57] 0 0
r 1.028642839 _0_ AGT  --- 57 cbr 1020 [31 0 1 800] ------- [1:0 0:0 30 0] [57] 1 0
s 1.028967105 _1_ AGT  --- 58 cbr 1000 [0 0 0 0] ------- [1:0 0:0 32 0] [58] 0 0
r 1.028967105 _1_ RTR  --- 58 cbr 1000 [0 0 0 0] ------- [1:0 0:0 32 0] [58] 0 0
s 1.028967105 _1_ RTR  --- 58 cbr 1020 [0 0 0 0] ------- [1:0 0:0 30 0] [58] 0 0
r 1.029257467 _0_ AGT  --- 58 cbr 1020 [31 0 1 800] ------- [1:0 0:0 30 0] [58] 1 0
s 1.029406424 _1_ AGT  --- 59 cbr 1000 [0 0 0 0] ------- [1:0 0:0 32 0] [59] 0 0
r 1.029406424 _1_ RTR  --- 59 cbr 1000 [0 0 0 0] ------- [1:0 0:0 32 0] [59] 0 0
s 1.029406424 _1_ RTR  --- 59 cbr 1020 [0 0 0 0] ------- [1:0 0:0 30 0] [59] 0 0
r 1.029669785 _0_ AGT  --- 59 cbr 1020 [31 0 1 800] ------- [1:0 0:0 30 0] [59] 1 0
s 1.030083702 _1_ AGT  --- 60 cbr 1000 [0 0 0 0] ------- [1:0 0:0 32 0] [60] 0 0
r 1.030083702 _1_ RTR  --- 60 cbr 1000 [0 0 0 0] ------- [1:0 0:0 32 0] [60] 0 0
s 1.030083702 _1_ RTR  --- 60 cbr 1020 [0 0 0 0] ------- [1:0 0:0 30 0] [60] 0 0
r 1.030365063 _0_ AGT  --- 60 cbr 1020 [31 0 1 800] ------- [1:0 0:0 30 0] [60] 1 0
s 1.030430154 _1_ AGT  --- 61 cbr 1000 [0 0 0 0] ------- [1:0 0:0 32 0] [61] 0 0
r 1.030430154 _1_ RTR  --- 61 cbr 1000 [0 0 0 0] ------- [1:0 0:0 32 0] [61] 0 0
s 1.030430154 _1_ RTR  --- 61 cbr 1020 [0 0 0 0] ------- [1:0 0:0 30 0] [61] 0 0
r 1.030717305 _0_ AGT  --- 61 cbr 1020 [31 0 1 800] ------- [1:0 0:0 30 0] [61] 1 0
s 1.030739862 _1_ AGT  --- 62 cbr 1000 [0 0 0 0] ------- [1:0 0:0 32 0] [62] 0 0
r 1.030739862 _1_ RTR  --- 62 cbr 1000 [0 0 0 0] ------- [1:0 0:0 32 0] [62] 0 0
s 1.030739862 _1_ RTR  --- 62 cbr 1020 [0 0 0 0] ------- [1:0 0:0 30 0] [62] 0 0
s 1.031016820 _1_ AGT  --- 63 cbr 1000 [0 0 0 0] ------- [1:0 0:0 32 0] [63] 0 0
r 1.031016820 _1_ RTR  --- 63 cbr 1000 [0 0 0 0] ------- [1:0 0:0 32 0] [63] 0 0
s 1.031016820 _1_ RTR  --- 63 cbr 1020 [0 0 0 0] ------- [1:0 0:0 30 0] [63] 0 0
r 1.031033547 _0_ AGT  --- 62 cbr 1020 [31 0 1 800] ------- [1:0 0:0 30 0] [62] 1 0
r 1.031313788 _0_ AGT  --- 63 cbr 1020 [31 0 1 800] ------- [1:0 0:0 30 0] [63] 1 0
s 1.031373988 _1_ AGT  --- 64 cbr 1000 [0 0 0 0] ------- [1:0 0:0 32 0] [64] 0 0
r 1.031373988 _1_ RTR  --- 64 cbr 1000 [0 0 0 0] ------- [1:0 0:0 32 0] [64] 0 0
s 1.031373988 _1_ RTR  --- 64 cbr 1020 [0 0 0 0] ------- [1:0 0:0 30 0] [64] 0 0
r 1.031612030 _0_ AGT  --- 64 cbr 1020 [31 0 1 800] ------- [1:0 0:0 30 0] [64] 1 0
s 1.032035094 _1_ AGT  --- 65 cbr 1000 [0 0 0 0] ------- [1:0 0:0 32 0] [65] 0 0
r 1.032035094 _1_ RTR  --- 65 cbr 1000 [0 0 0 0] ------- [1:0 0:0 32 0] [65] 0 0
s 1.032035094 _1_ RTR  --- 65 cbr 1020 [0 0 0 0] ------- [1:0 0:0 30 0] [65] 0 0
r 1.032361455 _0_ AGT  --- 65 cbr 1020 [31 0 1 800] ------- [1:0 0:0 30 0] [65] 1 0
s 1.032500274 _1_ AGT  --- 66 cbr 1000 [0 0 0 0] ------- [1:0 0:0 32 0] [66] 0 0
r 1.032500274 _1_ RTR  --- 66 cbr 1000 [0 0 0 0] ------- [1:0 0:0 32 0] [66] 0 0
s 1.032500274 _1_ RTR  --- 66 cbr 1020 [0 0 0 0] ------- [1:0 0:0 30 0] [66] 0 0
r 1.032808636 _0_ AGT  --- 66 cbr 1020 [31 0 1 800] ------- [1:0 0:0 30 0] [66] 1 0
s 1.033022011 _1_ AGT  --- 67 cbr 1000 [0 0 0 0] ------- [1:0 0:0 32 0] [67] 0 0
r 1.033022011 _1_ RTR  --- 67 cbr 1000 [0 0 0 0] ------- [1:0 0:0 32 0] [67] 0 0
s 1.033022011 _1_ RTR  --- 67 cbr 1020 [0 0 0 0] ------- [1:0 0:0 30 0] [67] 0 0
r 1.033321372 _0_ AGT  --- 67 cbr 1020 [31 0 1 800] ------- [1:0 0:0 30 0] [67] 1 0
s 1.033480525 _1_ AGT  --- 68 cbr 1000 [0 0 0 0] ------- [1:0 0:0 32 0] [68] 0 0
r 1.033480525 _1_ RTR  --- 68 cbr 1000 [0 0 0 0] ------- [1:0 0:0 32 0] [68] 0 0
s 1.033480525 _1_ RTR  --- 68 cbr 1020 [0 0 0 0] ------- [1:0 0:0 30 0] [68] 0 0
r 1.033824887 _0_ AGT  --- 68 cbr 1020 [31 0 1 800] ------- [1:0 0:0 30 0] [68] 1 0
s 1.034159212 _1_ AGT  --- 69 cbr 1000 [0 0 0 0] ------- [1:0 0:0 32 0] [69] 0 0
r 1.034159212 _1_ RTR  --- 69 cbr 1000 [0 0 0 0] ------- [1:0 0:0 32 0] [69] 0 0
s 1.034159212 _1_ RTR  --- 69 cbr 1020 [0 0 0 0] ------- [1:0 0:0 30 0] [69] 0 0
s 1.034447248 _1_ AGT  --- 70 cbr 1000 [0 0 0 0] ------- [1:0 0:0 32 0] [70] 0 0
r 1.034447248 _1_ RTR  --- 70 cbr 1000 [0 0 0 0] ------- [1:0 0:0 32 0] [70] 0 0
s 1.034447248 _1_ RTR  --- 70 cbr 1020 [0 0 0 0] ------- [1:0 0:0 30 0] [70] 0 0
r 1.034512573 _0_ AGT  --- 69 cbr 1020 [31 0 1 800] ------- [1:0 0:0 30 0] [69] 1 0
r 1.034864815 _0_ AGT  --- 70 cbr 1020 [31 0 1 800] ------- [1:0 0:0 30 0] [70] 1 0
s 1.035116396 _1_ AGT  --- 71 cbr 1000 [0 0 0 0] ------- [1:0 0:0 32 0] [71] 0 0
r 1.035116396 _1_ RTR  --- 71 cbr 1000 [0 0 0 0] ------- [1:0 0:0 32 0] [71] 0 0
s 1.035116396 _1_ RTR  --- 71 cbr 1020 [0 0 0 0] ------- [1:0 0:0 30 0] [71] 0 0
r 1.035460757 _0_ AGT  --- 71 cbr 1020 [31 0 1 800] ------- [1:0 0:0 30 0] [71] 1 0
s 1.035501273 _1_ AGT  --- 72 cbr 1000 [0 0 0 0] ------- [1:0 0:0 32 0] [72] 0 0
r 1.035501273 _1_ RTR  --- 72 cbr 1000 [0 0 0 0] ------- [1:0 0:0 32 0] [72] 0 0
s 1.035501273 _1_ RTR  --- 72 cbr 1020 [0 0 0 0] ------- [1:0 0:0 30 0] [72] 0 0
r 1.035839999 _0_ AGT  --- 72 cbr 1020 [31 0 1 800] ------- [1:0 0:0 30 0] [72] 1 0
s 1.035967214 _1_ AGT  --- 73 cbr 1000 [0 0 0 0] ------- [1:0 0:0 32 0] [73] 0 0
r 1.035967214 _1_ RTR  --- 73 cbr 1000 [0 0 0 0] ------- [1:0 0:0 32 0] [73] 0 0
s 1.035967214 _1_ RTR  --- 73 cbr 1020 [0 0 0 0] ------- [1:0 0:0 30 0] [73] 0 0
r 1.036284575 _0_ AGT  --- 73 cbr 1020 [31 0 1 800] ------- [1:0 0:0 30 0] [73] 1 0
s 1.036371188 _1_ AGT  --- 74 cbr 1000 [0 0 0 0] ------- [1:0 0:0 32 0] [74] 0 0
r 1.036371188 _1_ RTR  --- 74 cbr 1000 [0 0 0 0] ------- [1:0 0:0 32 0] [74] 0 0
s 1.036371188 _1_ RTR  --- 74 cbr 1020 [0 0 0 0] ------- [1:0 0:0 30 0] [74] 0 0
r 1.036715550 _0_ AGT  --- 74 cbr 1020 [31 0 1 800] ------- [1:0 0:0 30 0] [74] 1 0
s 1.036753068 _1_ AGT  --- 75 cbr 1000 [0 0 0 0] ------- [1:0 0:0 32 0] [75] 0 0
r 1.036753068 _1_ RTR  --- 75 cbr 1000 [0 0 0 0] ------- [1:0 0:0 32 0] [75] 0 0
s 1.036753068 _1_ RTR  --- 75 cbr 1020 [0 0 0 0] ------- [1:0 0:0 30 0] [75] 0 0
r 1.037040791 _0_ AGT  --- 75 cbr 1020 [31 0 1 800] ------- [1:0 0:0 30 0] [75] 1 0
s 1.037179687 _1_ AGT  --- 76 cbr 1000 [0 0 0 0] ------- [1:0 0:0 32 0] [76] 0 0
r 1.037179687 _1_ RTR  --- 76 cbr 1000 [0 0 0 0] ------- [1:0 0:0 32 0] [76] 0 0
s 1.037179687 _1_ RTR  --- 76 cbr 1020 [0 0 0 0] ------- [1:0 0:0 30 0] [76] 0 0
r 1.037411033 _0_ AGT  --- 76 cbr 1020 [31 0 1 800] ------- [1:0 0:0 30 0] [76] 1 0
s 1.037449595 _1_ AGT  --- 77 cbr 1000 [0 0 0 0] ------- [1:0 0:0 32 0] [77] 0 0
r 1.037449595 _1_ RTR  --- 77 cbr 1000 [0 0 0 0] ------- [1:0 0:0 32 0] [77] 0 0
s 1.037449595 _1_ RTR  --- 77 cbr 1020 [0 0 0 0] ------- [1:0 0:0 30 0] [77] 0 0
r 1.037727275 _0_ AGT  --- 77 cbr 1020 [31 0 1 800] ------- [1:0 0:0 30 0] [77] 1 0
s 1.037915910 _1_ AGT  --- 78 cbr 1000 [0 0 0 0] ------- [1:0 0:0 32 0] [78] 0 0
r 1.037915910 _1_ RTR  --- 78 cbr 1000 [0 0 0 0] ------- [1:0 0:0 32 0] [78] 0 0
s 1.037915910 _1_ RTR  --- 78 cbr 1020 [0 0 0 0] ------- [1:0 0:0 30 0] [78] 0 0
r 1.038197272 _0_ AGT  --- 78 cbr 1020 [31 0 1 800] ------- [1:0 0:0 30 0] [78] 1 0
s 1.038487165 _1_ AGT  --- 79 cbr 1000 [0 0 0 0] ------- [1:0 0:0 32 0] [79] 0 0
r 1.038487165 _1_ RTR  --- 79 cbr 1000 [0 0 0 0] ------- [1:0 0:0 32 0] [79] 0 0
s 1.038487165 _1_ RTR  --- 79 cbr 1020 [0 0 0 0] ------- [1:0 0:0 30 0] [79] 0 0
r 1.038786527 _0_ AGT  --- 79 cbr 1020 [31 0 1 800] ------- [1:0 0:0 30 0] [79] 1 0
s 1.038914802 _1_ AGT  --- 80 cbr 1000 [0 0 0 0] ------- [1:0 0:0 32 0] [80] 0 0
r 1.038914802 _1_ RTR  --- 80 cbr 1000 [0 0 0 0] ------- [1:0 0:0 32 0] [80] 0 0
s 1.038914802 _1_ RTR  --- 80 cbr 1020 [0 0 0 0] ------- [1:0 0:0 30 0] [80] 0 0
r 1.039196163 _0_ AGT  --- 80 cbr 1020 [31 0 1 800] ------- [1:0 0:0 30 0] [80] 1 0
s 1.039488560 _1_ AGT  --- 81 cbr 1000 [0 0 0 0] ------- [1:0 0:0 32 0] [81] 0 0
r 1.039488560 _1_ RTR  --- 81 cbr 1000 [0 0 0 0] ------- [1:0 0:0 32 0] [81] 0 0
s 1.039488560 _1_ RTR  --- 81 cbr 1020 [0 0 0 0] ------- [1:0 0:0 30 0] [81] 0 0
r 1.039850922 _0_ AGT  --- 81 cbr 1020 [31 0 1 800] ------- [1:0 0:0 30 0] [81] 1 0
s 1.040054378 _1_ AGT  --- 82 cbr 1000 [0 0 0 0] ------- [1:0 0:0 32 0] [82] 0 0
r 1.040054378 _1_ RTR  --- 82 cbr 1000 [0 0 0 0] ------- [1:0 0:0 32 0] [82] 0 0
s 1.040054378 _1_ RTR  --- 82 cbr 1020 [0 0 0 0] ------- [1:0 0:0 30 0] [82] 0 0
r 1.040326740 _0_ AGT  --- 82 cbr 1020 [31 0 1 800] ------- [1:0 0:0 30 0] [82] 1 0
s 1.040562574 _1_ AGT  --- 83 cbr 1000 [0 0 0 0] ------- [1:0 0:0 32 0] [83] 0 0
r 1.040562574 _1_ RTR  --- 83 cbr 1000 [0 0 0 0] ------- [1:0 0:0 32 0] [83] 0 0
s 1.040562574 _1_ RTR  --- 83 cbr 1020 [0 0 0 0] ------- [1:0 0:0 30 0] [83] 0 0
r 1.040933936 _0_ AGT  --- 83 cbr 1020 [31 0 1 800] ------- [1:0 0:0 30 0] [83] 1 0
s 1.041000190 _1_ AGT  --- 84 cbr 1000 [0 0 0 0] ------- [1:0 0:0 32 0] [84] 0 0
r 1.041000190 _1_ RTR  --- 84 cbr 1000 [0 0 0 0] ------- [1:0 0:0 32 0] [84] 0 0
s 1.041000190 _1_ RTR  --- 84 cbr 1020 [0 0 0 0] ------- [1:0 0:0 30 0] [84] 0 0
r 1.041268177 _0_ AGT  --- 84 cbr 1020 [31 0 1 800] ------- [1:0 0:0 30 0] [84] 1 0
s 1.041464136 _1_ AGT  --- 85 cbr 1000 [0 0 0 0] ------- [1:0 0:0 32 0] [85] 0 0
r 1.041464136 _1_ RTR  --- 85 cbr 1000 [0 0 0 0] ------- [1:0 0:0 32 0] [85] 0 0
s 1.041464136 _1_ RTR  --- 85 cbr 1020 [0 0 0 0] ------- [1:0 0:0 30 0] [85] 0 0
r 1.041844497 _0_ AGT  --- 85 cbr 1020 [31 0 1 800] ------- [1:0 0:0 30 0] [85] 1 0
s 1.042134784 _1_ AGT  --- 86 cbr 1000 [0 0 0 0] ------- [1:0 0:0 32 0] [86] 0 0
r 1.042134784 _1_ RTR  --- 86 cbr 1000 [0 0 0 0] ------- [1:0 0:0 32 0] [86] 0 0
s 1.042134784 _1_ RTR  --- 86 cbr 1020 [0 0 0 0] ------- [1:0 0:0 30 0] [86] 0 0
r 1.042488146 _0_ AGT  --- 86 cbr 1020 [31 0 1 800] ------- [1:0 0:0 30 0] [86] 1 0
s 1.042644835 _1_ AGT  --- 87 cbr 1000 [0 0 0 0] ------- [1:0 0:0 32 0] [87] 0 0
r 1.042644835 _1_ RTR  --- 87 cbr 1000 [0 0 0 0] ------- [1:0 0:0 32 0] [87] 0 0
s 1.042644835 _1_ RTR  --- 87 cbr 1020 [0 0 0 0] ------- [1:0 0:0 30 0] [87] 0 0
r 1.042989197 _0_ AGT  --- 87 cbr 1020 [31 0 1 800] ------- [1:0 0:0 30 0] [87] 1 0
s 1.043356733 _1_ AGT  --- 88 cbr 1000 [0 0 0 0] ------- [1:0 0:0 32 0] [88] 0 0
r 1.043356733 _1_ RTR  --- 88 cbr 1000 [0 0 0 0] ------- [1:0 0:0 32 0] [88] 0 0
s 1.043356733 _1_ RTR  --- 88 cbr 1020 [0 0 0 0] ------- [1:0 0:0 30 0] [88] 0 0
r 1.043647095 _0_ AGT  --- 88 cbr 1020 [31 0 1 800] ------- [1:0 0:0 30 0] [88] 1 0