n -t * -s 0  -x 100 -y 200 -Z 0 -z 1  -v circle -c black
n -t * -s 1  -x 60 -y 150 -Z 0 -z 1  -v circle -c black
n -t * -s 2  -x 140 -y 150 -Z 0 -z 1  -v circle -c black
V -t * -v 1.0a5 -a 0
W -t * -x 400 -y 400
A -t * -n 1 -p 0 -o 0x7fffffff -c 30 -a 1
A -t * -h 1 -m 1073741823 -s 0
n -t * -a 0 -s 0 -S UP -v circle -c black -i black -x 100 -y 200 -Z 0
n -t * -a 1 -s 1 -S UP -v circle -c black -i black -x 60 -y 150 -Z 0
n -t * -a 2 -s 2 -S UP -v circle -c black -i black -x 140 -y 150 -Z 0
+ -t 1.000000000 -s 1 -d -1 -p cbr -e 1000 -c 2 -a 0 -i 0 -k AGT 
- -t 1.000000000 -s 1 -d -1 -p cbr -e 1000 -c 2 -a 0 -i 0 -k AGT
h -t 1.000000000 -s 1 -d -1 -p cbr -e 1000 -c 2 -a 0 -i 0 -k AGT
+ -t 1.000000000 -s 1 -d -1 -p AODV -e 48 -c 2 -a 0 -i 0 -k RTR 
- -t 1.000000000 -s 1 -d -1 -p AODV -e 48 -c 2 -a 0 -i 0 -k RTR
h -t 1.000000000 -s 1 -d -1 -p AODV -e 48 -c 2 -a 0 -i 0 -k RTR
r -t 1.000261547 -s 0 -d -1 -p AODV -e 48 -c 2 -a 0 -i 0 -k RTR
+ -t 1.000261547 -s 0 -d 1 -p AODV -e 44 -c 2 -a 0 -i 0 -k RTR 
- -t 1.000261547 -s 0 -d 1 -p AODV -e 44 -c 2 -a 0 -i 0 -k RTR
h -t 1.000261547 -s 0 -d 1 -p AODV -e 44 -c 2 -a 0 -i 0 -k RTR
r -t 1.000261600 -s 2 -d -1 -p AODV -e 48 -c 2 -a 0 -i 0 -k RTR
+ -t 1.000527940 -s 1 -d -1 -p cbr -e 1000 -c 2 -a 0 -i 1 -k AGT 
- -t 1.000527940 -s 1 -d -1 -p cbr -e 1000 -c 2 -a 0 -i 1 -k AGT
h -t 1.000527940 -s 1 -d -1 -p cbr -e 1000 -c 2 -a 0 -i 1 -k AGT
+ -t 1.000773261 -s 1 -d 0 -p cbr -e 1020 -c 2 -a 0 -i 0 -k RTR 
- -t 1.000773261 -s 1 -d 0 -p cbr -e 1020 -c 2 -a 0 -i 0 -k RTR
h -t 1.000773261 -s 1 -d 0 -p cbr -e 1020 -c 2 -a 0 -i 0 -k RTR
+ -t 1.000895241 -s 1 -d -1 -p cbr -e 1000 -c 2 -a 0 -i 2 -k AGT 
- -t 1.000895241 -s 1 -d -1 -p cbr -e 1000 -c 2 -a 0 -i 2 -k AGT
h -t 1.000895241 -s 1 -d -1 -p cbr -e 1000 -c 2 -a 0 -i 2 -k AGT
+ -t 1.000895241 -s 1 -d 0 -p cbr -e 1020 -c 2 -a 0 -i 2 -k RTR 
- -t 1.000895241 -s 1 -d 0 -p cbr -e 1020 -c 2 -a 0 -i 2 -k RTR
h -t 1.000895241 -s 1 -d 0 -p cbr -e 1020 -c 2 -a 0 -i 2 -k RTR
r -t 1.001126623 -s 0 -d 0 -p cbr -e 1020 -c 2 -a 0 -i 0 -k AGT
+ -t 1.001166639 -s 1 -d -1 -p cbr -e 1000 -c 2 -a 0 -i 3 -k AGT 
- -t 1.001166639 -s 1 -d -1 -p cbr -e 1000 -c 2 -a 0 -i 3 -k AGT
h -t 1.001166639 -s 1 -d -1 -p cbr -e 1000 -c 2 -a 0 -i 3 -k AGT
+ -t 1.001166639 -s 1 -d 0 -p cbr -e 1020 -c 2 -a 0 -i 3 -k RTR 
- -t 1.001166639 -s 1 -d 0 -p cbr -e 1020 -c 2 -a 0 -i 3 -k RTR
h -t 1.001166639 -s 1 -d 0 -p cbr -e 1020 -c 2 -a 0 -i 3 -k RTR
r -t 1.001433864 -s 0 -d 0 -p cbr -e 1020 -c 2 -a 0 -i 2 -k AGT
+ -t 1.001473543 -s 1 -d -1 -p cbr -e 1000 -c 2 -a 0 -i 4 -k AGT 
- -t 1.001473543 -s 1 -d -1 -p cbr -e 1000 -c 2 -a 0 -i 4 -k AGT
h -t 1.001473543 -s 1 -d -1 -p cbr -e 1000 -c 2 -a 0 -i 4 -k AGT
+ -t 1.001473543 -s 1 -d 0 -p cbr -e 1020 -c 2 -a 0 -i 4 -k RTR 
- -t 1.001473543 -s 1 -d 0 -p cbr -e 1020 -c 2 -a 0 -i 4 -k RTR
h -t 1.001473543 -s 1 -d 0 -p cbr -e 1020 -c 2 -a 0 -i 4 -k RTR
r -t 1.001741106 -s 0 -d 0 -p cbr -e 1020 -c 2 -a 0 -i 3 -k AGT
+ -t 1.001935371 -s 1 -d -1 -p cbr -e 1000 -c 2 -a 0 -i 5 -k AGT 
- -t 1.001935371 -s 1 -d -1 -p cbr -e 1000 -c 2 -a 0 -i 5 -k AGT
h -t 1.001935371 -s 1 -d -1 -p cbr -e 1000 -c 2 -a 0 -i 5 -k AGT
+ -t 1.001935371 -s 1 -d 0 -p cbr -e 1020 -c 2 -a 0 -i 5 -k RTR 
- -t 1.001935371 -s 1 -d 0 -p cbr -e 1020 -c 2 -a 0 -i 5 -k RTR
h -t 1.001935371 -s 1 -d 0 -p cbr -e 1020 -c 2 -a 0 -i 5 -k RTR
r -t 1.002120348 -s 0 -d 0 -p cbr -e 1020 -c 2 -a 0 -i 4 -k AGT
+ -t 1.002232440 -s 1 -d -1 -p cbr -e 1000 -c 2 -a 0 -i 6 -k AGT 
- -t 1.002232440 -s 1 -d -1 -p cbr -e 1000 -c 2 -a 0 -i 6 -k AGT
h -t 1.002232440 -s 1 -d -1 -p cbr -e 1000 -c 2 -a 0 -i 6 -k AGT
+ -t 1.002232440 -s 1 -d 0 -p cbr -e 1020 -c 2 -a 0 -i 6 -k RTR 
- -t 1.002232440 -s 1 -d 0 -p cbr -e 1020 -c 2 -a 0 -i 6 -k RTR
h -t 1.002232440 -s 1 -d 0 -p cbr -e 1020 -c 2 -a 0 -i 6 -k RTR
r -t 1.002391590 -s 0 -d 0 -p cbr -e 1020 -c 2 -a 0 -i 5 -k AGT
+ -t 1.002656811 -s 1 -d -1 -p cbr -e 1000 -c 2 -a 0 -i 7 -k AGT 
- -t 1.002656811 -s 1 -d -1 -p cbr -e 1000 -c 2 -a 0 -i 7 -k AGT
h -t 1.002656811 -s 1 -d -1 -p cbr -e 1000 -c 2 -a 0 -i 7 -k AGT
+ -t 1.002656811 -s 1 -d 0 -p cbr -e 1020 -c 2 -a 0 -i 7 -k RTR 
- -t 1.002656811 -s 1 -d 0 -p cbr -e 1020 -c 2 -a 0 -i 7 -k RTR
h -t 1.002656811 -s 1 -d 0 -p cbr -e 1020 -c 2 -a 0 -i 7 -k RTR
r -t 1.002770831 -s 0 -d 0 -p cbr -e 1020 -c 2 -a 0 -i 6 -k AGT
+ -t 1.003111154 -s 1 -d -1 -p cbr -e 1000 -c 2 -a 0 -i 8 -k AGT 
- -t 1.003111154 -s 1 -d -1 -p cbr -e 1000 -c 2 -a 0 -i 8 -k AGT
h -t 1.003111154 -s 1 -d -1 -p cbr -e 1000 -c 2 -a 0 -i 8 -k AGT
+ -t 1.003111154 -s 1 -d 0 -p cbr -e 1020 -c 2 -a 0 -i 8 -k RTR 
- -t 1.003111154 -s 1 -d 0 -p cbr -e 1020 -c 2 -a 0 -i 8 -k RTR
h -t 1.003111154 -s 1 -d 0 -p cbr -e 1020 -c 2 -a 0 -i 8 -k RTR
r -t 1.003114073 -s 0 -d 0 -p cbr -e 1020 -c 2 -a 0 -i 7 -k AGT
r -t 1.003466315 -s 0 -d 0 -p cbr -e 1020 -c 2 -a 0 -i 8 -k AGT
+ -t 1.003594212 -s 1 -d -1 -p cbr -e 1000 -c 2 -a 0 -i 9 -k AGT 
- -t 1.003594212 -s 1 -d -1 -p cbr -e 1000 -c 2 -a 0 -i 9 -k AGT
h -t 1.003594212 -s 1 -d -1 -p cbr -e 1000 -c 2 -a 0 -i 9 -k AGT
+ -t 1.003594212 -s 1 -d 0 -p cbr -e 1020 -c 2 -a 0 -i 9 -k RTR 
- -t 1.003594212 -s 1 -d 0 -p cbr -e 1020 -c 2 -a 0 -i 9 -k RTR
h -t 1.003594212 -s 1 -d 0 -p cbr -e 1020 -c 2 -a 0 -i 9 -k RTR
r -t 1.003875573 -s 0 -d 0 -p cbr -e 1020 -c 2 -a 0 -i 9 -k AGT
+ -t 1.004264124 -s 1 -d -1 -p cbr -e 1000 -c 2 -a 0 -i 10 -k AGT 
- -t 1.004264124 -s 1 -d -1 -p cbr -e 1000 -c 2 -a 0 -i 10 -k AGT
h -t 1.004264124 -s 1 -d -1 -p cbr -e 1000 -c 2 -a 0 -i 10 -k AGT
+ -t 1.004264124 -s 1 -d 0 -p cbr -e 1020 -c 2 -a 0 -i 10 -k RTR 
- -t 1.004264124 -s 1 -d 0 -p cbr -e 1020 -c 2 -a 0 -i 10 -k RTR
h -t 1.004264124 -s 1 -d 0 -p cbr -e 1020 -c 2 -a 0 -i 10 -k RTR
r -t 1.004644486 -s 0 -d 0 -p cbr -e 1020 -c 2 -a 0 -i 10 -k AGT
+ -t 1.004673334 -s 2 -d -1 -p AODV -e 48 -c 2 -a 0 -i 0 -k RTR 
- -t 1.004673334 -s 2 -d -1 -p AODV -e 48 -c 2 -a 0 -i 0 -k RTR
h -t 1.004673334 -s 2 -d -1 -p AODV -e 48 -c 2 -a 0 -i 0 -k RTR
+ -t 1.004939678 -s 1 -d -1 -p cbr -e 1000 -c 2 -a 0 -i 11 -k AGT 
- -t 1.004939678 -s 1 -d -1 -p cbr -e 1000 -c 2 -a 0 -i 11 -k AGT
h -t 1.004939678 -s 1 -d -1 -p cbr -e 1000 -c 2 -a 0 -i 11 -k AGT
+ -t 1.004939678 -s 1 -d 0 -p cbr -e 1020 -c 2 -a 0 -i 11 -k RTR 
- -t 1.004939678 -s 1 -d 0 -p cbr -e 1020 -c 2 -a 0 -i 11 -k RTR
h -t 1.004939678 -s 1 -d 0 -p cbr -e 1020 -c 2 -a 0 -i 11 -k RTR
r -t 1.004988881 -s 0 -d -1 -p AODV -e 48 -c 2 -a 0 -i 0 -k RTR
r -t 1.004988934 -s 1 -d -1 -p AODV -e 48 -c 2 -a 0 -i 0 -k RTR
r -t 1.005302039 -s 0 -d 0 -p cbr -e 1020 -c 2 -a 0 -i 11 -k AGT
+ -t 1.005392437 -s 1 -d -1 -p cbr -e 1000 -c 2 -a 0 -i 12 -k AGT 
- -t 1.005392437 -s 1 -d -1 -p cbr -e 1000 -c 2 -a 0 -i 12 -k AGT
h -t 1.005392437 -s 1 -d -1 -p cbr -e 1000 -c 2 -a 0 -i 12 -k AGT
+ -t 1.005392437 -s 1 -d 0 -p cbr -e 1020 -c 2 -a 0 -i 12 -k RTR 
- -t 1.005392437 -s 1 -d 0 -p cbr -e 1020 -c 2 -a 0 -i 12 -k RTR
h -t 1.005392437 -s 1 -d 0 -p cbr -e 1020 -c 2 -a 0 -i 12 -k RTR
r -t 1.005663281 -s 0 -d 0 -p cbr -e 1020 -c 2 -a 0 -i 12 -k AGT
+ -t 1.006086159 -s 1 -d -1 -p cbr -e 1000 -c 2 -a 0 -i 13 -k AGT 
- -t 1.006086159 -s 1 -d -1 -p cbr -e 1000 -c 2 -a 0 -i 13 -k AGT
h -t 1.006086159 -s 1 -d -1 -p cbr -e 1000 -c 2 -a 0 -i 13 -k AGT
+ -t 1.006086159 -s 1 -d 0 -p cbr -e 1020 -c 2 -a 0 -i 13 -k RTR 
- -t 1.006086159 -s 1 -d 0 -p cbr -e 1020 -c 2 -a 0 -i 13 -k RTR
h -t 1.006086159 -s 1 -d 0 -p cbr -e 1020 -c 2 -a 0 -i 13 -k RTR
r -t 1.006457521 -s 0 -d 0 -p cbr -e 1020 -c 2 -a 0 -i 13 -k AGT
+ -t 1.006781833 -s 1 -d -1 -p cbr -e 1000 -c 2 -a 0 -i 14 -k AGT 
- -t 1.006781833 -s 1 -d -1 -p cbr -e 1000 -c 2 -a 0 -i 14 -k AGT
h -t 1.006781833 -s 1 -d -1 -p cbr -e 1000 -c 2 -a 0 -i 14 -k AGT
+ -t 1.006781833 -s 1 -d 0 -p cbr -e 1020 -c 2 -a 0 -i 14 -k RTR 
- -t 1.006781833 -s 1 -d 0 -p cbr -e 1020 -c 2 -a 0 -i 14 -k RTR
h -t 1.006781833 -s 1 -d 0 -p cbr -e 1020 -c 2 -a 0 -i 14 -k RTR
r -t 1.007036194 -s 0 -d 0 -p cbr -e 1020 -c 2 -a 0 -i 14 -k AGT
+ -t 1.007037237 -s 1 -d -1 -p cbr -e 1000 -c 2 -a 0 -i 15 -k AGT 
- -t 1.007037237 -s 1 -d -1 -p cbr -e 1000 -c 2 -a 0 -i 15 -k AGT
h -t 1.007037237 -s 1 -d -1 -p cbr -e 1000 -c 2 -a 0 -i 15 -k AGT
+ -t 1.007037237 -s 1 -d 0 -p cbr -e 1020 -c 2 -a 0 -i 15 -k RTR 
- -t 1.007037237 -s 1 -d 0 -p cbr -e 1020 -c 2 -a 0 -i 15 -k RTR
h -t 1.007037237 -s 1 -d 0 -p cbr -e 1020 -c 2 -a 0 -i 15 -k RTR
r -t 1.007415436 -s 0 -d 0 -p cbr -e 1020 -c 2 -a 0 -i 15 -k AGT
+ -t 1.007455068 -s 1 -d -1 -p cbr -e 1000 -c 2 -a 0 -i 16 -k AGT 
- -t 1.007455068 -s 1 -d -1 -p cbr -e 1000 -c 2 -a 0 -i 16 -k AGT
h -t 1.007455068 -s 1 -d -1 -p cbr -e 1000 -c 2 -a 0 -i 16 -k AGT
+ -t 1.007455068 -s 1 -d 0 -p cbr -e 1020 -c 2 -a 0 -i 16 -k RTR 
- -t 1.007455068 -s 1 -d 0 -p cbr -e 1020 -c 2 -a 0 -i 16 -k RTR
h -t 1.007455068 -s 1 -d 0 -p cbr -e 1020 -c 2 -a 0 -i 16 -k RTR
r -t 1.007686678 -s 0 -d 0 -p cbr -e 1020 -c 2 -a 0 -i 16 -k AGT
+ -t 1.007833565 -s 1 -d -1 -p cbr -e 1000 -c 2 -a 0 -i 17 -k AGT 
- -t 1.007833565 -s 1 -d -1 -p cbr -e 1000 -c 2 -a 0 -i 17 -k AGT
h -t 1.007833565 -s 1 -d -1 -p cbr -e 1000 -c 2 -a 0 -i 17 -k AGT
+ -t 1.007833565 -s 1 -d 0 -p cbr -e 1020 -c 2 -a 0 -i 17 -k RTR 
- -t 1.007833565 -s 1 -d 0 -p cbr -e 1020 -c 2 -a 0 -i 17 -k RTR
h -t 1.007833565 -s 1 -d 0 -p cbr -e 1020 -c 2 -a 0 -i 17 -k RTR
r -t 1.008204927 -s 0 -d 0 -p cbr -e 1020 -c 2 -a 0 -i 17 -k AGT
+ -t 1.008355976 -s 1 -d -1 -p cbr -e 1000 -c 2 -a 0 -i 18 -k AGT 
- -t 1.008355976 -s 1 -d -1 -p cbr -e 1000 -c 2 -a 0 -i 18 -k AGT
h -t 1.008355976 -s 1 -d -1 -p cbr -e 1000 -c 2 -a 0 -i 18 -k AGT
+ -t 1.008355976 -s 1 -d 0 -p cbr -e 1020 -c 2 -a 0 -i 18 -k RTR 
- -t 1.008355976 -s 1 -d 0 -p cbr -e 1020 -c 2 -a 0 -i 18 -k RTR
h -t 1.008355976 -s 1 -d 0 -p cbr -e 1020 -c 2 -a 0 -i 18 -k RTR
r -t 1.008584169 -s 0 -d 0 -p cbr -e 1020 -c 2 -a 0 -i 18 -k AGT
+ -t 1.008883396 -s 1 -d -1 -p cbr -e 1000 -c 2 -a 0 -i 19 -k AGT 
- -t 1.008883396 -s 1 -d -1 -p cbr -e 1000 -c 2 -a 0 -i 19 -k AGT
h -t 1.008883396 -s 1 -d -1 -p cbr -e 1000 -c 2 -a 0 -i 19 -k AGT
+ -t 1.008883396 -s 1 -d 0 -p cbr -e 1020 -c 2 -a 0 -i 19 -k RTR 
- -t 1.008883396 -s 1 -d 0 -p cbr -e 1020 -c 2 -a 0 -i 19 -k RTR
h -t 1.008883396 -s 1 -d 0 -p cbr -e 1020 -c 2 -a 0 -i 19 -k RTR
+ -t 1.009147175 -s 1 -d -1 -p cbr -e 1000 -c 2 -a 0 -i 20 -k AGT 
- -t 1.009147175 -s 1 -d -1 -p cbr -e 1000 -c 2 -a 0 -i 20 -k AGT
h -t 1.009147175 -s 1 -d -1 -p cbr -e 1000 -c 2 -a 0 -i 20 -k AGT
+ -t 1.009147175 -s 1 -d 0 -p cbr -e 1020 -c 2 -a 0 -i 20 -k RTR 
- -t 1.009147175 -s 1 -d 0 -p cbr -e 1020 -c 2 -a 0 -i 20 -k RTR
h -t 1.009147175 -s 1 -d 0 -p cbr -e 1020 -c 2 -a 0 -i 20 -k RTR
r -t 1.009254758 -s 0 -d 0 -p cbr -e 1020 -c 2 -a 0 -i 19 -k AGT
+ -t 1.009490282 -s 1 -d -1 -p cbr -e 1000 -c 2 -a 0 -i 21 -k AGT 
- -t 1.009490282 -s 1 -d -1 -p cbr -e 1000 -c 2 -a 0 -i 21 -k AGT
h -t 1.009490282 -s 1 -d -1 -p cbr -e 1000 -c 2 -a 0 -i 21 -k AGT
+ -t 1.009490282 -s 1 -d 0 -p cbr -e 1020 -c 2 -a 0 -i 21 -k RTR 
- -t 1.009490282 -s 1 -d 0 -p cbr -e 1020 -c 2 -a 0 -i 21 -k RTR
h -t 1.009490282 -s 1 -d 0 -p cbr -e 1020 -c 2 -a 0 -i 21 -k RTR
r -t 1.009516999 -s 0 -d 0 -p cbr -e 1020 -c 2 -a 0 -i 20 -k AGT
r -t 1.009860241 -s 0 -d 0 -p cbr -e 1020 -c 2 -a 0 -i 21 -k AGT
+ -t 1.010213690 -s 1 -d -1 -p cbr -e 1000 -c 2 -a 0 -i 22 -k AGT 
- -t 1.010213690 -s 1 -d -1 -p cbr -e 1000 -c 2 -a 0 -i 22 -k AGT
h -t 1.010213690 -s 1 -d -1 -p cbr -e 1000 -c 2 -a 0 -i 22 -k AGT
+ -t 1.010213690 -s 1 -d 0 -p cbr -e 1020 -c 2 -a 0 -i 22 -k RTR 
- -t 1.010213690 -s 1 -d 0 -p cbr -e 1020 -c 2 -a 0 -i 22 -k RTR
h -t 1.010213690 -s 1 -d 0 -p cbr -e 1020 -c 2 -a 0 -i 22 -k RTR
r -t 1.010558052 -s 0 -d 0 -p cbr -e 1020 -c 2 -a 0 -i 22 -k AGT
+ -t 1.010773261 -s 1 -d 0 -p cbr -e 1020 -c 2 -a 0 -i 1 -k RTR 
- -t 1.010773261 -s 1 -d 0 -p cbr -e 1020 -c 2 -a 0 -i 1 -k RTR
h -t 1.010773261 -s 1 -d 0 -p cbr -e 1020 -c 2 -a 0 -i 1 -k RTR
+ -t 1.010811159 -s 1 -d -1 -p cbr -e 1000 -c 2 -a 0 -i 23 -k AGT 
- -t 1.010811159 -s 1 -d -1 -p cbr -e 1000 -c 2 -a 0 -i 23 -k AGT
h -t 1.010811159 -s 1 -d -1 -p cbr -e 1000 -c 2 -a 0 -i 23 -k AGT
+ -t 1.010811159 -s 1 -d 0 -p cbr -e 1020 -c 2 -a 0 -i 23 -k RTR 
- -t 1.010811159 -s 1 -d 0 -p cbr -e 1020 -c 2 -a 0 -i 23 -k RTR
h -t 1.010811159 -s 1 -d 0 -p cbr -e 1020 -c 2 -a 0 -i 23 -k RTR
r -t 1.011099623 -s 0 -d 0 -p cbr -e 1020 -c 2 -a 0 -i 1 -k AGT
+ -t 1.011307020 -s 1 -d -1 -p cbr -e 1000 -c 2 -a 0 -i 24 -k AGT 
- -t 1.011307020 -s 1 -d -1 -p cbr -e 1000 -c 2 -a 0 -i 24 -k AGT
h -t 1.011307020 -s 1 -d -1 -p cbr -e 1000 -c 2 -a 0 -i 24 -k AGT
+ -t 1.011307020 -s 1 -d 0 -p cbr -e 1020 -c 2 -a 0 -i 24 -k RTR 
- -t 1.011307020 -s 1 -d 0 -p cbr -e 1020 -c 2 -a 0 -i 24 -k RTR
h -t 1.011307020 -s 1 -d 0 -p cbr -e 1020 -c 2 -a 0 -i 24 -k RTR
r -t 1.011460864 -s 0 -d 0 -p cbr -e 1020 -c 2 -a 0 -i 23 -k AGT
r -t 1.011768106 -s 0 -d 0 -p cbr -e 1020 -c 2 -a 0 -i 24 -k AGT
+ -t 1.011989572 -s 1 -d -1 -p cbr -e 1000 -c 2 -a 0 -i 25 -k AGT 
- -t 1.011989572 -s 1 -d -1 -p cbr -e 1000 -c 2 -a 0 -i 25 -k AGT
h -t 1.011989572 -s 1 -d -1 -p cbr -e 1000 -c 2 -a 0 -i 25 -k AGT
+ -t 1.011989572 -s 1 -d 0 -p cbr -e 1020 -c 2 -a 0 -i 25 -k RTR 
- -t 1.011989572 -s 1 -d 0 -p cbr -e 1020 -c 2 -a 0 -i 25 -k RTR
h -t 1.011989572 -s 1 -d 0 -p cbr -e 1020 -c 2 -a 0 -i 25 -k RTR
r -t 1.012333934 -s 0 -d 0 -p cbr -e 1020 -c 2 -a 0 -i 25 -k AGT
+ -t 1.012450182 -s 1 -d -1 -p cbr -e 1000 -c 2 -a 0 -i 26 -k AGT 
- -t 1.012450182 -s 1 -d -1 -p cbr -e 1000 -c 2 -a 0 -i 26 -k AGT
h -t 1.012450182 -s 1 -d -1 -p cbr -e 1000 -c 2 -a 0 -i 26 -k AGT
+ -t 1.012450182 -s 1 -d 0 -p cbr -e 1020 -c 2 -a 0 -i 26 -k RTR 
- -t 1.012450182 -s 1 -d 0 -p cbr -e 1020 -c 2 -a 0 -i 26 -k RTR
h -t 1.012450182 -s 1 -d 0 -p cbr -e 1020 -c 2 -a 0 -i 26 -k RTR
r -t 1.012830544 -s 0 -d 0 -p cbr -e 1020 -c 2 -a 0 -i 26 -k AGT
+ -t 1.013151606 -s 1 -d -1 -p cbr -e 1000 -c 2 -a 0 -i 27 -k AGT 
- -t 1.013151606 -s 1 -d -1 -p cbr -e 1000 -c 2 -a 0 -i 27 -k AGT
h -t 1.013151606 -s 1 -d -1 -p cbr -e 1000 -c 2 -a 0 -i 27 -k AGT
+ -t 1.013151606 -s 1 -d 0 -p cbr -e 1020 -c 2 -a 0 -i 27 -k RTR 
- -t 1.013151606 -s 1 -d 0 -p cbr -e 1020 -c 2 -a 0 -i 27 -k RTR
h -t 1.013151606 -s 1 -d 0 -p cbr -e 1020 -c 2 -a 0 -i 27 -k RTR
r -t 1.013486968 -s 0 -d 0 -p cbr -e 1020 -c 2 -a 0 -i 27 -k AGT
+ -t 1.013694662 -s 1 -d -1 -p cbr -e 1000 -c 2 -a 0 -i 28 -k AGT 
- -t 1.013694662 -s 1 -d -1 -p cbr -e 1000 -c 2 -a 0 -i 28 -k AGT
h -t 1.013694662 -s 1 -d -1 -p cbr -e 1000 -c 2 -a 0 -i 28 -k AGT
+ -t 1.013694662 -s 1 -d 0 -p cbr -e 1020 -c 2 -a 0 -i 28 -k RTR 
- -t 1.013694662 -s 1 -d 0 -p cbr -e 1020 -c 2 -a 0 -i 28 -k RTR
h -t 1.013694662 -s 1 -d 0 -p cbr -e 1020 -c 2 -a 0 -i 28 -k RTR
r -t 1.013985024 -s 0 -d 0 -p cbr -e 1020 -c 2 -a 0 -i 28 -k AGT
+ -t 1.014122692 -s 1 -d -1 -p cbr -e 1000 -c 2 -a 0 -i 29 -k AGT 
- -t 1.014122692 -s 1 -d -1 -p cbr -e 1000 -c 2 -a 0 -i 29 -k AGT
h -t 1.014122692 -s 1 -d -1 -p cbr -e 1000 -c 2 -a 0 -i 29 -k AGT
+ -t 1.014122692 -s 1 -d 0 -p cbr -e 1020 -c 2 -a 0 -i 29 -k RTR 
- -t 1.014122692 -s 1 -d 0 -p cbr -e 1020 -c 2 -a 0 -i 29 -k RTR
h -t 1.014122692 -s 1 -d 0 -p cbr -e 1020 -c 2 -a 0 -i 29 -k RTR
r -t 1.014485053 -s 0 -d 0 -p cbr -e 1020 -c 2 -a 0 -i 29 -k AGT
+ -t 1.014764579 -s 1 -d -1 -p cbr -e 1000 -c 2 -a 0 -i 30 -k AGT 
- -t 1.014764579 -s 1 -d -1 -p cbr -e 1000 -c 2 -a 0 -i 30 -k AGT
h -t 1.014764579 -s 1 -d -1 -p cbr -e 1000 -c 2 -a 0 -i 30 -k AGT
+ -t 1.014764579 -s 1 -d 0 -p cbr -e 1020 -c 2 -a 0 -i 30 -k RTR 
- -t 1.014764579 -s 1 -d 0 -p cbr -e 1020 -c 2 -a 0 -i 30 -k RTR
h -t 1.014764579 -s 1 -d 0 -p cbr -e 1020 -c 2 -a 0 -i 30 -k RTR
r -t 1.015108941 -s 0 -d 0 -p cbr -e 1020 -c 2 -a 0 -i 30 -k AGT
+ -t 1.015217768 -s 1 -d -1 -p cbr -e 1000 -c 2 -a 0 -i 31 -k AGT 
- -t 1.015217768 -s 1 -d -1 -p cbr -e 1000 -c 2 -a 0 -i 31 -k AGT
h -t 1.015217768 -s 1 -d -1 -p cbr -e 1000 -c 2 -a 0 -i 31 -k AGT
+ -t 1.015217768 -s 1 -d 0 -p cbr -e 1020 -c 2 -a 0 -i 31 -k RTR 
- -t 1.015217768 -s 1 -d 0 -p cbr -e 1020 -c 2 -a 0 -i 31 -k RTR
h -t 1.015217768 -s 1 -d 0 -p cbr -e 1020 -c 2 -a 0 -i 31 -k RTR
+ -t 1.015467855 -s 1 -d -1 -p cbr -e 1000 -c 2 -a 0 -i 32 -k AGT 
- -t 1.015467855 -s 1 -d -1 -p cbr -e 1000 -c 2 -a 0 -i 32 -k AGT
h -t 1.015467855 -s 1 -d -1 -p cbr -e 1000 -c 2 -a 0 -i 32 -k AGT
+ -t 1.015467855 -s 1 -d 0 -p cbr -e 1020 -c 2 -a 0 -i 32 -k RTR 
- -t 1.015467855 -s 1 -d 0 -p cbr -e 1020 -c 2 -a 0 -i 32 -k RTR
h -t 1.015467855 -s 1 -d 0 -p cbr -e 1020 -c 2 -a 0 -i 32 -k RTR
r -t 1.015517130 -s 0 -d 0 -p cbr -e 1020 -c 2 -a 0 -i 31 -k AGT
r -t 1.015779371 -s 0 -d 0 -p cbr -e 1020 -c 2 -a 0 -i 32 -k AGT
+ -t 1.015883962 -s 1 -d -1 -p cbr -e 1000 -c 2 -a 0 -i 33 -k AGT 
- -t 1.015883962 -s 1 -d -1 -p cbr -e 1000 -c 2 -a 0 -i 33 -k AGT
h -t 1.015883962 -s 1 -d -1 -p cbr -e 1000 -c 2 -a 0 -i 33 -k AGT
+ -t 1.015883962 -s 1 -d 0 -p cbr -e 1020 -c 2 -a 0 -i 33 -k RTR 
- -t 1.015883962 -s 1 -d 0 -p cbr -e 1020 -c 2 -a 0 -i 33 -k RTR
h -t 1.015883962 -s 1 -d 0 -p cbr -e 1020 -c 2 -a 0 -i 33 -k RTR
+ -t 1.016150359 -s 1 -d -1 -p cbr -e 1000 -c 2 -a 0 -i 34 -k AGT 
- -t 1.016150359 -s 1 -d -1 -p cbr -e 1000 -c 2 -a 0 -i 34 -k AGT
h -t 1.016150359 -s 1 -d -1 -p cbr -e 1000 -c 2 -a 0 -i 34 -k AGT
+ -t 1.016150359 -s 1 -d 0 -p cbr -e 1020 -c 2 -a 0 -i 34 -k RTR 
- -t 1.016150359 -s 1 -d 0 -p cbr -e 1020 -c 2 -a 0 -i 34 -k RTR
h -t 1.016150359 -s 1 -d 0 -p cbr -e 1020 -c 2 -a 0 -i 34 -k RTR
r -t 1.016246324 -s 0 -d 0 -p cbr -e 1020 -c 2 -a 0 -i 33 -k AGT
r -t 1.016508566 -s 0 -d 0 -p cbr -e 1020 -c 2 -a 0 -i 34 -k AGT
+ -t 1.016552853 -s 1 -d -1 -p cbr -e 1000 -c 2 -a 0 -i 35 -k AGT 
- -t 1.016552853 -s 1 -d -1 -p cbr -e 1000 -c 2 -a 0 -i 35 -k AGT
h -t 1.016552853 -s 1 -d -1 -p cbr -e 1000 -c 2 -a 0 -i 35 -k AGT
+ -t 1.016552853 -s 1 -d 0 -p cbr -e 1020 -c 2 -a 0 -i 35 -k RTR 
- -t 1.016552853 -s 1 -d 0 -p cbr -e 1020 -c 2 -a 0 -i 35 -k RTR
h -t 1.016552853 -s 1 -d 0 -p cbr -e 1020 -c 2 -a 0 -i 35 -k RTR
r -t 1.016816215 -s 0 -d 0 -p cbr -e 1020 -c 2 -a 0 -i 35 -k AGT
+ -t 1.017243482 -s 1 -d -1 -p cbr -e 1000 -c 2 -a 0 -i 36 -k AGT 
- -t 1.017243482 -s 1 -d -1 -p cbr -e 1000 -c 2 -a 0 -i 36 -k AGT
h -t 1.017243482 -s 1 -d -1 -p cbr -e 1000 -c 2 -a 0 -i 36 -k AGT
+ -t 1.017243482 -s 1 -d 0 -p cbr -e 1020 -c 2 -a 0 -i 36 -k RTR 
- -t 1.017243482 -s 1 -d 0 -p cbr -e 1020 -c 2 -a 0 -i 36 -k RTR
h -t 1.017243482 -s 1 -d 0 -p cbr -e 1020 -c 2 -a 0 -i 36 -k RTR
+ -t 1.017579091 -s 1 -d -1 -p cbr -e 1000 -c 2 -a 0 -i 37 -k AGT 
- -t 1.017579091 -s 1 -d -1 -p cbr -e 1000 -c 2 -a 0 -i 37 -k AGT
h -t 1.017579091 -s 1 -d -1 -p cbr -e 1000 -c 2 -a 0 -i 37 -k AGT
+ -t 1.017579091 -s 1 -d 0 -p cbr -e 1020 -c 2 -a 0 -i 37 -k RTR 
- -t 1.017579091 -s 1 -d 0 -p cbr -e 1020 -c 2 -a 0 -i 37 -k RTR
h -t 1.017579091 -s 1 -d 0 -p cbr -e 1020 -c 2 -a 0 -i 37 -k RTR
r -t 1.017623843 -s 0 -d 0 -p cbr -e 1020 -c 2 -a 0 -i 36 -k AGT
r -t 1.017985085 -s 0 -d 0 -p cbr -e 1020 -c 2 -a 0 -i 37 -k AGT
+ -t 1.018206709 -s 1 -d -1 -p cbr -e 1000 -c 2 -a 0 -i 38 -k AGT 
- -t 1.018206709 -s 1 -d -1 -p cbr -e 1000 -c 2 -a 0 -i 38 -k AGT
h -t 1.018206709 -s 1 -d -1 -p cbr -e 1000 -c 2 -a 0 -i 38 -k AGT
+ -t 1.018206709 -s 1 -d 0 -p cbr -e 1020 -c 2 -a 0 -i 38 -k RTR 
- -t 1.018206709 -s 1 -d 0 -p cbr -e 1020 -c 2 -a 0 -i 38 -k RTR
h -t 1.018206709 -s 1 -d 0 -p cbr -e 1020 -c 2 -a 0 -i 38 -k RTR
r -t 1.018461071 -s 0 -d 0 -p cbr -e 1020 -c 2 -a 0 -i 38 -k AGT
+ -t 1.018717082 -s 1 -d -1 -p cbr -e 1000 -c 2 -a 0 -i 39 -k AGT 
- -t 1.018717082 -s 1 -d -1 -p cbr -e 1000 -c 2 -a 0 -i 39 -k AGT
h -t 1.018717082 -s 1 -d -1 -p cbr -e 1000 -c 2 -a 0 -i 39 -k AGT
+ -t 1.018717082 -s 1 -d 0 -p cbr -e 1020 -c 2 -a 0 -i 39 -k RTR 
- -t 1.018717082 -s 1 -d 0 -p cbr -e 1020 -c 2 -a 0 -i 39 -k RTR
h -t 1.018717082 -s 1 -d 0 -p cbr -e 1020 -c 2 -a 0 -i 39 -k RTR
+ -t 1.018975081 -s 1 -d -1 -p cbr -e 1000 -c 2 -a 0 -i 40 -k AGT 
- -t 1.018975081 -s 1 -d -1 -p cbr -e 1000 -c 2 -a 0 -i 40 -k AGT
h -t 1.018975081 -s 1 -d -1 -p cbr -e 1000 -c 2 -a 0 -i 40 -k AGT
+ -t 1.018975081 -s 1 -d 0 -p cbr -e 1020 -c 2 -a 0 -i 40 -k RTR 
- -t 1.018975081 -s 1 -d 0 -p cbr -e 1020 -c 2 -a 0 -i 40 -k RTR
h -t 1.018975081 -s 1 -d 0 -p cbr -e 1020 -c 2 -a 0 -i 40 -k RTR
r -t 1.019097444 -s 0 -d 0 -p cbr -e 1020 -c 2 -a 0 -i 39 -k AGT
r -t 1.019404686 -s 0 -d 0 -p cbr -e 1020 -c 2 -a 0 -i 40 -k AGT
+ -t 1.019443692 -s 1 -d -1 -p cbr -e 1000 -c 2 -a 0 -i 41 -k AGT 
- -t 1.019443692 -s 1 -d -1 -p cbr -e 1000 -c 2 -a 0 -i 41 -k AGT
h -t 1.019443692 -s 1 -d -1 -p cbr -e 1000 -c 2 -a 0 -i 41 -k AGT
+ -t 1.019443692 -s 1 -d 0 -p cbr -e 1020 -c 2 -a 0 -i 41 -k RTR 
- -t 1.019443692 -s 1 -d 0 -p cbr -e 1020 -c 2 -a 0 -i 41 -k RTR
h -t 1.019443692 -s 1 -d 0 -p cbr -e 1020 -c 2 -a 0 -i 41 -k RTR
r -t 1.019675927 -s 0 -d 0 -p cbr -e 1020 -c 2 -a 0 -i 41 -k AGT
+ -t 1.020143399 -s 1 -d -1 -p cbr -e 1000 -c 2 -a 0 -i 42 -k AGT 
- -t 1.020143399 -s 1 -d -1 -p cbr -e 1000 -c 2 -a 0 -i 42 -k AGT
h -t 1.020143399 -s 1 -d -1 -p cbr -e 1000 -c 2 -a 0 -i 42 -k AGT
+ -t 1.020143399 -s 1 -d 0 -p cbr -e 1020 -c 2 -a 0 -i 42 -k RTR 
- -t 1.020143399 -s 1 -d 0 -p cbr -e 1020 -c 2 -a 0 -i 42 -k RTR
h -t 1.020143399 -s 1 -d 0 -p cbr -e 1020 -c 2 -a 0 -i 42 -k RTR
r -t 1.020424761 -s 0 -d 0 -p cbr -e 1020 -c 2 -a 0 -i 42 -k AGT
+ -t 1.020608602 -s 1 -d -1 -p cbr -e 1000 -c 2 -a 0 -i 43 -k AGT 
- -t 1.020608602 -s 1 -d -1 -p cbr -e 1000 -c 2 -a 0 -i 43 -k AGT
h -t 1.020608602 -s 1 -d -1 -p cbr -e 1000 -c 2 -a 0 -i 43 -k AGT
+ -t 1.020608602 -s 1 -d 0 -p cbr -e 1020 -c 2 -a 0 -i 43 -k RTR 
- -t 1.020608602 -s 1 -d 0 -p cbr -e 1020 -c 2 -a 0 -i 43 -k RTR
h -t 1.020608602 -s 1 -d 0 -p cbr -e 1020 -c 2 -a 0 -i 43 -k RTR
r -t 1.020952963 -s 0 -d 0 -p cbr -e 1020 -c 2 -a 0 -i 43 -k AGT
+ -t 1.021226429 -s 1 -d -1 -p cbr -e 1000 -c 2 -a 0 -i 44 -k AGT 
- -t 1.021226429 -s 1 -d -1 -p cbr -e 1000 -c 2 -a 0 -i 44 -k AGT
h -t 1.021226429 -s 1 -d -1 -p cbr -e 1000 -c 2 -a 0 -i 44 -k AGT
+ -t 1.021226429 -s 1 -d 0 -p cbr -e 1020 -c 2 -a 0 -i 44 -k RTR 
- -t 1.021226429 -s 1 -d 0 -p cbr -e 1020 -c 2 -a 0 -i 44 -k RTR
h -t 1.021226429 -s 1 -d 0 -p cbr -e 1020 -c 2 -a 0 -i 44 -k RTR
r -t 1.021606790 -s 0 -d 0 -p cbr -e 1020 -c 2 -a 0 -i 44 -k AGT
+ -t 1.021787874 -s 1 -d -1 -p cbr -e 1000 -c 2 -a 0 -i 45 -k AGT 
- -t 1.021787874 -s 1 -d -1 -p cbr -e 1000 -c 2 -a 0 -i 45 -k AGT
h -t 1.021787874 -s 1 -d -1 -p cbr -e 1000 -c 2 -a 0 -i 45 -k AGT
+ -t 1.021787874 -s 1 -d 0 -p cbr -e 1020 -c 2 -a 0 -i 45 -k RTR 
- -t 1.021787874 -s 1 -d 0 -p cbr -e 1020 -c 2 -a 0 -i 45 -k RTR
h -t 1.021787874 -s 1 -d 0 -p cbr -e 1020 -c 2 -a 0 -i 45 -k RTR
r -t 1.022132235 -s 0 -d 0 -p cbr -e 1020 -c 2 -a 0 -i 45 -k AGT
+ -t 1.022155644 -s 1 -d -1 -p cbr -e 1000 -c 2 -a 0 -i 46 -k AGT 
- -t 1.022155644 -s 1 -d -1 -p cbr -e 1000 -c 2 -a 0 -i 46 -k AGT
h -t 1.022155644 -s 1 -d -1 -p cbr -e 1000 -c 2 -a 0 -i 46 -k AGT
+ -t 1.022155644 -s 1 -d 0 -p cbr -e 1020 -c 2 -a 0 -i 46 -k RTR 
- -t 1.022155644 -s 1 -d 0 -p cbr -e 1020 -c 2 -a 0 -i 46 -k RTR
h -t 1.022155644 -s 1 -d 0 -p cbr -e 1020 -c 2 -a 0 -i 46 -k RTR
r -t 1.022394477 -s 0 -d 0 -p cbr -e 1020 -c 2 -a 0 -i 46 -k AGT
+ -t 1.022493986 -s 1 -d -1 -p cbr -e 1000 -c 2 -a 0 -i 47 -k AGT 
- -t 1.022493986 -s 1 -d -1 -p cbr -e 1000 -c 2 -a 0 -i 47 -k AGT
h -t 1.022493986 -s 1 -d -1 -p cbr -e 1000 -c 2 -a 0 -i 47 -k AGT
+ -t 1.022493986 -s 1 -d 0 -p cbr -e 1020 -c 2 -a 0 -i 47 -k RTR 
- -t 1.022493986 -s 1 -d 0 -p cbr -e 1020 -c 2 -a 0 -i 47 -k RTR
h -t 1.022493986 -s 1 -d 0 -p cbr -e 1020 -c 2 -a 0 -i 47 -k RTR
r -t 1.022874348 -s 0 -d 0 -p cbr -e 1020 -c 2 -a 0 -i 47 -k AGT
+ -t 1.023033237 -s 1 -d -1 -p cbr -e 1000 -c 2 -a 0 -i 48 -k AGT 
- -t 1.023033237 -s 1 -d -1 -p cbr -e 1000 -c 2 -a 0 -i 48 -k AGT
h -t 1.023033237 -s 1 -d -1 -p cbr -e 1000 -c 2 -a 0 -i 48 -k AGT
+ -t 1.023033237 -s 1 -d 0 -p cbr -e 1020 -c 2 -a 0 -i 48 -k RTR 
- -t 1.023033237 -s 1 -d 0 -p cbr -e 1020 -c 2 -a 0 -i 48 -k RTR
h -t 1.023033237 -s 1 -d 0 -p cbr -e 1020 -c 2 -a 0 -i 48 -k RTR
r -t 1.023314599 -s 0 -d 0 -p cbr -e 1020 -c 2 -a 0 -i 48 -k AGT
+ -t 1.023698358 -s 1 -d -1 -p cbr -e 1000 -c 2 -a 0 -i 49 -k AGT 
- -t 1.023698358 -s 1 -d -1 -p cbr -e 1000 -c 2 -a 0 -i 49 -k AGT
h -t 1.023698358 -s 1 -d -1 -p cbr -e 1000 -c 2 -a 0 -i 49 -k AGT
+ -t 1.023698358 -s 1 -d 0 -p cbr -e 1020 -c 2 -a 0 -i 49 -k RTR 
- -t 1.023698358 -s 1 -d 0 -p cbr -e 1020 -c 2 -a 0 -i 49 -k RTR
h -t 1.023698358 -s 1 -d 0 -p cbr -e 1020 -c 2 -a 0 -i 49 -k RTR
r -t 1.023979719 -s 0 -d 0 -p cbr -e 1020 -c 2 -a 0 -i 49 -k AGT
+ -t 1.024345377 -s 1 -d -1 -p cbr -e 1000 -c 2 -a 0 -i 50 -k AGT 
- -t 1.024345377 -s 1 -d -1 -p cbr -e 1000 -c 2 -a 0 -i 50 -k AGT
h -t 1.024345377 -s 1 -d -1 -p cbr -e 1000 -c 2 -a 0 -i 50 -k AGT
+ -t 1.024345377 -s 1 -d 0 -p cbr -e 1020 -c 2 -a 0 -i 50 -k RTR 
- -t 1.024345377 -s 1 -d 0 -p cbr -e 1020 -c 2 -a 0 -i 50 -k RTR
h -t 1.024345377 -s 1 -d 0 -p cbr -e 1020 -c 2 -a 0 -i 50 -k RTR
r -t 1.024608738 -s 0 -d 0 -p cbr -e 1020 -c 2 -a 0 -i 50 -k AGT
+ -t 1.024709865 -s 1 -d -1 -p cbr -e 1000 -c 2 -a 0 -i 51 -k AGT 
- -t 1.024709865 -s 1 -d -1 -p cbr -e 1000 -c 2 -a 0 -i 51 -k AGT
h -t 1.024709865 -s 1 -d -1 -p cbr -e 1000 -c 2 -a 0 -i 51 -k AGT
+ -t 1.024709865 -s 1 -d 0 -p cbr -e 1020 -c 2 -a 0 -i 51 -k RTR 
- -t 1.024709865 -s 1 -d 0 -p cbr -e 1020 -c 2 -a 0 -i 51 -k RTR
h -t 1.024709865 -s 1 -d 0 -p cbr -e 1020 -c 2 -a 0 -i 51 -k RTR
r -t 1.025054227 -s 0 -d 0 -p cbr -e 1020 -c 2 -a 0 -i 51 -k AGT
+ -t 1.025189852 -s 1 -d -1 -p cbr -e 1000 -c 2 -a 0 -i 52 -k AGT 
- -t 1.025189852 -s 1 -d -1 -p cbr -e 1000 -c 2 -a 0 -i 52 -k AGT
h -t 1.025189852 -s 1 -d -1 -p cbr -e 1000 -c 2 -a 0 -i 52 -k AGT
+ -t 1.025189852 -s 1 -d 0 -p cbr -e 1020 -c 2 -a 0 -i 52 -k RTR 
- -t 1.025189852 -s 1 -d 0 -p cbr -e 1020 -c 2 -a 0 -i 52 -k RTR
h -t 1.025189852 -s 1 -d 0 -p cbr -e 1020 -c 2 -a 0 -i 52 -k RTR
r -t 1.025453214 -s 0 -d 0 -p cbr -e 1020 -c 2 -a 0 -i 52 -k AGT
+ -t 1.025892705 -s 1 -d -1 -p cbr -e 1000 -c 2 -a 0 -i 53 -k AGT 
- -t 1.025892705 -s 1 -d -1 -p cbr -e 1000 -c 2 -a 0 -i 53 -k AGT
h -t 1.025892705 -s 1 -d -1 -p cbr -e 1000 -c 2 -a 0 -i 53 -k AGT
+ -t 1.025892705 -s 1 -d 0 -p cbr -e 1020 -c 2 -a 0 -i 53 -k RTR 
- -t 1.025892705 -s 1 -d 0 -p cbr -e 1020 -c 2 -a 0 -i 53 -k RTR
h -t 1.025892705 -s 1 -d 0 -p cbr -e 1020 -c 2 -a 0 -i 53 -k RTR
r -t 1.026192067 -s 0 -d 0 -p cbr -e 1020 -c 2 -a 0 -i 53 -k AGT
+ -t 1.026412821 -s 1 -d -1 -p cbr -e 1000 -c 2 -a 0 -i 54 -k AGT 
- -t 1.026412821 -s 1 -d -1 -p cbr -e 1000 -c 2 -a 0 -i 54 -k AGT
h -t 1.026412821 -s 1 -d -1 -p cbr -e 1000 -c 2 -a 0 -i 54 -k AGT
+ -t 1.026412821 -s 1 -d 0 -p cbr -e 1020 -c 2 -a 0 -i 54 -k RTR 
- -t 1.026412821 -s 1 -d 0 -p cbr -e 1020 -c 2 -a 0 -i 54 -k RTR
h -t 1.026412821 -s 1 -d 0 -p cbr -e 1020 -c 2 -a 0 -i 54 -k RTR
r -t 1.026721183 -s 0 -d 0 -p cbr -e 1020 -c 2 -a 0 -i 54 -k AGT
+ -t 1.027148737 -s 1 -d -1 -p cbr -e 1000 -c 2 -a 0 -i 55 -k AGT 
- -t 1.027148737 -s 1 -d -1 -p cbr -e 1000 -c 2 -a 0 -i 55 -k AGT
h -t 1.027148737 -s 1 -d -1 -p cbr -e 1000 -c 2 -a 0 -i 55 -k AGT
+ -t 1.027148737 -s 1 -d 0 -p cbr -e 1020 -c 2 -a 0 -i 55 -k RTR 
- -t 1.027148737 -s 1 -d 0 -p cbr -e 1020 -c 2 -a 0 -i 55 -k RTR
h -t 1.027148737 -s 1 -d 0 -p cbr -e 1020 -c 2 -a 0 -i 55 -k RTR
r -t 1.027475098 -s 0 -d 0 -p cbr -e 1020 -c 2 -a 0 -i 55 -k AGT
+ -t 1.027763630 -s 1 -d -1 -p cbr -e 1000 -c 2 -a 0 -i 56 -k AGT 
- -t 1.027763630 -s 1 -d -1 -p cbr -e 1000 -c 2 -a 0 -i 56 -k AGT
h -t 1.027763630 -s 1 -d -1 -p cbr -e 1000 -c 2 -a 0 -i 56 -k AGT
+ -t 1.027763630 -s 1 -d 0 -p cbr -e 1020 -c 2 -a 0 -i 56 -k RTR 
- -t 1.027763630 -s 1 -d 0 -p cbr -e 1020 -c 2 -a 0 -i 56 -k RTR
h -t 1.027763630 -s 1 -d 0 -p cbr -e 1020 -c 2 -a 0 -i 56 -k RTR
r -t 1.028125992 -s 0 -d 0 -p cbr -e 1020 -c 2 -a 0 -i 56 -k AGT
+ -t 1.028388477 -s 1 -d -1 -p cbr -e 1000 -c 2 -a 0 -i 57 -k AGT 
- -t 1.028388477 -s 1 -d -1 -p cbr -e 1000 -c 2 -a 0 -i 57 -k AGT
h -t 1.028388477 -s 1 -d -1 -p cbr -e 1000 -c 2 -a 0 -i 57 -k AGT
+ -t 1.028388477 -s 1 -d 0 -p cbr -e 1020 -c 2 -a 0 -i 57 -k RTR 
- -t 1.028388477 -s 1 -d 0 -p cbr -e 1020 -c 2 -a 0 -i 57 -k RTR
h -t 1.028388477 -s 1 -d 0 -p cbr -e 1020 -c 2 -a 0 -i 57 -k RTR
r -t 1.028642839 -s 0 -d 0 -p cbr -e 1020 -c 2 -a 0 -i 57 -k AGT
+ -t 1.028967105 -s 1 -d -1 -p cbr -e 1000 -c 2 -a 0 -i 58 -k AGT 
- -t 1.028967105 -s 1 -d -1 -p cbr -e 1000 -c 2 -a 0 -i 58 -k AGT
h -t 1.028967105 -s 1 -d -1 -p cbr -e 1000 -c 2 -a 0 -i 58 -k AGT
+ -t 1.028967105 -s 1 -d 0 -p cbr -e 1020 -c 2 -a 0 -i 58 -k RTR 
- -t 1.028967105 -s 1 -d 0 -p cbr -e 1020 -c 2 -a 0 -i 58 -k RTR
h -t 1.028967105 -s 1 -d 0 -p cbr -e 1020 -c 2 -a 0 -i 58 -k RTR
r -t 1.029257467 -s 0 -d 0 -p cbr -e 1020 -c 2 -a 0 -i 58 -k AGT
+ -t 1.029406424 -s 1 -d -1 -p cbr -e 1000 -c 2 -a 0 -i 59 -k AGT 
- -t 1.029406424 -s 1 -d -1 -p cbr -e 1000 -c 2 -a 0 -i 59 -k AGT
h -t 1.029406424 -s 1 -d -1 -p cbr -e 1000 -c 2 -a 0 -i 59 -k AGT
+ -t 1.029406424 -s 1 -d 0 -p cbr -e 1020 -c 2 -a 0 -i 59 -k RTR 
- -t 1.029406424 -s 1 -d 0 -p cbr -e 1020 -c 2 -a 0 -i 59 -k RTR
h -t 1.029406424 -s 1 -d 0 -p cbr -e 1020 -c 2 -a 0 -i 59 -k RTR
r -t 1.029669785 -s 0 -d 0 -p cbr -e 1020 -c 2 -a 0 -i 59 -k AGT
+ -t 1.030083702 -s 1 -d -1 -p cbr -e 1000 -c 2 -a 0 -i 60 -k AGT 
- -t 1.030083702 -s 1 -d -1 -p cbr -e 1000 -c 2 -a 0 -i 60 -k AGT
h -t 1.030083702 -s 1 -d -1 -p cbr -e 1000 -c 2 -a 0 -i 60 -k AGT
+ -t 1.030083702 -s 1 -d 0 -p cbr -e 1020 -c 2 -a 0 -i 60 -k RTR 
- -t 1.030083702 -s 1 -d 0 -p cbr -e 1020 -c 2 -a 0 -i 60 -k RTR
h -t 1.030083702 -s 1 -d 0 -p cbr -e 1020 -c 2 -a 0 -i 60 -k RTR
r -t 1.030365063 -s 0 -d 0 -p cbr -e 1020 -c 2 -a 0 -i 60 -k AGT
+ -t 1.030430154 -s 1 -d -1 -p cbr -e 1000 -c 2 -a 0 -i 61 -k AGT 
- -t 1.030430154 -s 1 -d -1 -p cbr -e 1000 -c 2 -a 0 -i 61 -k AGT
h -t 1.030430154 -s 1 -d -1 -p cbr -e 1000 -c 2 -a 0 -i 61 -k AGT
+ -t 1.030430154 -s 1 -d 0 -p cbr -e 1020 -c 2 -a 0 -i 61 -k RTR 
- -t 1.030430154 -s 1 -d 0 -p cbr -e 1020 -c 2 -a 0 -i 61 -k RTR
h -t 1.030430154 -s 1 -d 0 -p cbr -e 1020 -c 2 -a 0 -i 61 -k RTR
r -t 1.030717305 -s 0 -d 0 -p cbr -e 1020 -c 2 -a 0 -i 61 -k AGT
+ -t 1.030739862 -s 1 -d -1 -p cbr -e 1000 -c 2 -a 0 -i 62 -k AGT 
- -t 1.030739862 -s 1 -d -1 -p cbr -e 1000 -c 2 -a 0 -i 62 -k AGT
h -t 1.030739862 -s 1 -d -1 -p cbr -e 1000 -c 2 -a 0 -i 62 -k AGT